Program Version,EnergyPlus, Version 22.2.0-c249759bad, YMD=2022.11.30 14:47
1,5,Environment Title[],Latitude[deg],Longitude[deg],Time Zone[],Elevation[m]
2,8,Day of Simulation[],Month[],Day of Month[],DST Indicator[1=yes 0=no],Hour[],StartMinute[],EndMinute[],DayType
3,5,Cumulative Day of Simulation[],Month[],Day of Month[],DST Indicator[1=yes 0=no],DayType  ! When Daily Report Variables Requested
4,2,Cumulative Days of Simulation[],Month[]  ! When Monthly Report Variables Requested
5,1,Cumulative Days of Simulation[] ! When Run Period Report Variables Requested
6,1,Calendar Year of Simulation[] ! When Annual Report Variables Requested
165,1,2_RESIDENTIAL_232D78C4,Zone Lights Electricity Energy [J] !Hourly
166,1,3_OFFICE_335E157A,Zone Lights Electricity Energy [J] !Hourly
265,1,2_RESIDENTIAL_232D78C4,Zone Mean Air Temperature [C] !TimeStep
266,1,3_OFFICE_335E157A,Zone Mean Air Temperature [C] !TimeStep
463,1,2_RESIDENTIAL_232D78C4 IDEAL LOADS SYSTEM,Zone Ideal Loads Supply Air Total Heating Energy [J] !Hourly
512,1,2_RESIDENTIAL_232D78C4 IDEAL LOADS SYSTEM,Zone Ideal Loads Supply Air Total Cooling Energy [J] !Hourly
561,1,3_OFFICE_335E157A IDEAL LOADS SYSTEM,Zone Ideal Loads Supply Air Total Heating Energy [J] !Hourly
562,1,3_OFFICE_335E157A IDEAL LOADS SYSTEM,Zone Ideal Loads Supply Air Total Cooling Energy [J] !Hourly
End of Data Dictionary
1,RUN PERIOD 1,  47.47,-122.32,  -8.00, 122.00
2,1, 1, 1, 0, 1, 0.00,60.00,Tuesday
265,17.071276825403128
266,17.013901463534133
2,1, 1, 1, 0, 1, 0.00,60.00,Tuesday
165,0.0
166,0.0
463,0.0
512,0.0
561,0.0
562,0.0
2,1, 1, 1, 0, 2, 0.00,60.00,Tuesday
265,16.700577064968094
266,16.700773479420093
2,1, 1, 1, 0, 2, 0.00,60.00,Tuesday
165,0.0
166,0.0
463,237416.72362129422
512,0.0
561,309063.2429976107
562,0.0
2,1, 1, 1, 0, 3, 0.00,60.00,Tuesday
265,16.700000049179188
266,16.700000077136554
2,1, 1, 1, 0, 3, 0.00,60.00,Tuesday
165,0.0
166,0.0
463,557557.3585209019
512,0.0
561,602835.325998178
562,0.0
2,1, 1, 1, 0, 4, 0.00,60.00,Tuesday
265,16.700000000529265
266,16.700000000902616
2,1, 1, 1, 0, 4, 0.00,60.00,Tuesday
165,0.0
166,0.0
463,577089.4682989921
512,0.0
561,632832.180810572
562,0.0
2,1, 1, 1, 0, 5, 0.00,60.00,Tuesday
265,16.70000000000631
266,16.700000000011485
2,1, 1, 1, 0, 5, 0.00,60.00,Tuesday
165,0.0
166,0.0
463,654135.655036574
512,0.0
561,700369.1267783019
562,0.0
2,1, 1, 1, 0, 6, 0.00,60.00,Tuesday
265,16.70000000000007
266,16.700000000000138
2,1, 1, 1, 0, 6, 0.00,60.00,Tuesday
165,0.0
166,0.0
463,624429.1182598997
512,0.0
561,664289.2747323706
562,0.0
2,1, 1, 1, 0, 7, 0.00,60.00,Tuesday
265,22.261069044129517
266,22.2598316334295
2,1, 1, 1, 0, 7, 0.00,60.00,Tuesday
165,0.0
166,0.0
463,8889899.492127534
512,0.0
561,8934239.927336631
562,0.0
2,1, 1, 1, 0, 8, 0.00,60.00,Tuesday
265,22.2
266,22.200000000000003
2,1, 1, 1, 0, 8, 0.00,60.00,Tuesday
165,0.0
166,0.0
463,5412699.433429739
512,0.0
561,5458457.708422844
562,0.0
2,1, 1, 1, 0, 9, 0.00,60.00,Tuesday
265,22.2
266,22.2
2,1, 1, 1, 0, 9, 0.00,60.00,Tuesday
165,1760181.84
166,1760181.84
463,1838980.2448948198
512,0.0
561,1900163.9304998536
562,0.0
2,1, 1, 1, 0,10, 0.00,60.00,Tuesday
265,22.32582666132662
266,22.233540651662256
2,1, 1, 1, 0,10, 0.00,60.00,Tuesday
165,1760181.84
166,1760181.84
463,0.0
512,0.0
561,0.0
562,0.0
2,1, 1, 1, 0,11, 0.00,60.00,Tuesday
265,23.01025376235387
266,22.800158125099024
2,1, 1, 1, 0,11, 0.00,60.00,Tuesday
165,1760181.84
166,1760181.84
463,0.0
512,0.0
561,0.0
562,0.0
2,1, 1, 1, 0,12, 0.00,60.00,Tuesday
265,23.05338729647864
266,22.816383999106964
2,1, 1, 1, 0,12, 0.00,60.00,Tuesday
165,1408145.4720000003
166,1408145.4720000003
463,0.0
512,0.0
561,0.0
562,0.0
2,1, 1, 1, 0,13, 0.00,60.00,Tuesday
265,22.300216328916296
266,22.219992783969765
2,1, 1, 1, 0,13, 0.00,60.00,Tuesday
165,704072.7360000001
166,704072.7360000001
463,354232.8202637959
512,0.0
561,604898.4194484625
562,0.0
2,1, 1, 1, 0,14, 0.00,60.00,Tuesday
265,22.83616123683234
266,22.53335240935955
2,1, 1, 1, 0,14, 0.00,60.00,Tuesday
165,1408145.4720000003
166,1408145.4720000003
463,0.0
512,0.0
561,0.0
562,0.0
2,1, 1, 1, 0,15, 0.00,60.00,Tuesday
265,23.354557653351012
266,23.040437854906415
2,1, 1, 1, 0,15, 0.00,60.00,Tuesday
165,1760181.84
166,1760181.84
463,0.0
512,0.0
561,0.0
562,0.0
2,1, 1, 1, 0,16, 0.00,60.00,Tuesday
265,23.448922754722627
266,23.178845893820604
2,1, 1, 1, 0,16, 0.00,60.00,Tuesday
165,1760181.84
166,1760181.84
463,0.0
512,0.0
561,0.0
562,0.0
2,1, 1, 1, 0,17, 0.00,60.00,Tuesday
265,23.30678157645182
266,23.091835455627525
2,1, 1, 1, 0,17, 0.00,60.00,Tuesday
165,1760181.84
166,1760181.84
463,0.0
512,0.0
561,0.0
562,0.0
2,1, 1, 1, 0,18, 0.00,60.00,Tuesday
265,23.20968423527854
266,23.025191993879773
2,1, 1, 1, 0,18, 0.00,60.00,Tuesday
165,1760181.84
166,1760181.84
463,0.0
512,0.0
561,0.0
562,0.0
2,1, 1, 1, 0,19, 0.00,60.00,Tuesday
265,22.315553624278625
266,22.272027446182108
2,1, 1, 1, 0,19, 0.00,60.00,Tuesday
165,880090.92
166,880090.92
463,385719.1794723425
512,0.0
561,577830.8239183093
562,0.0
2,1, 1, 1, 0,20, 0.00,60.00,Tuesday
265,22.200000003665238
266,22.200000010359943
2,1, 1, 1, 0,20, 0.00,60.00,Tuesday
165,0.0
166,0.0
463,2891794.1012707464
512,0.0
561,3055780.1762323123
562,0.0
2,1, 1, 1, 0,21, 0.00,60.00,Tuesday
265,20.125688814950056
266,20.091807692691184
2,1, 1, 1, 0,21, 0.00,60.00,Tuesday
165,0.0
166,0.0
463,0.0
512,0.0
561,0.0
562,0.0
2,1, 1, 1, 0,22, 0.00,60.00,Tuesday
265,18.96124248227352
266,18.91944054122638
2,1, 1, 1, 0,22, 0.00,60.00,Tuesday
165,0.0
166,0.0
463,0.0
512,0.0
561,0.0
562,0.0
2,1, 1, 1, 0,23, 0.00,60.00,Tuesday
265,18.09044650716279
266,18.0383547598037
2,1, 1, 1, 0,23, 0.00,60.00,Tuesday
165,0.0
166,0.0
463,0.0
512,0.0
561,0.0
562,0.0
2,1, 1, 1, 0,24, 0.00,60.00,Tuesday
265,17.50743654773567
266,17.4522529138604
2,1, 1, 1, 0,24, 0.00,60.00,Tuesday
165,0.0
166,0.0
463,0.0
512,0.0
561,0.0
562,0.0
2,2, 1, 2, 0, 1, 0.00,60.00,Wednesday
265,17.128498829925874
266,17.072101302668592
2,2, 1, 2, 0, 1, 0.00,60.00,Wednesday
165,0.0
166,0.0
463,0.0
512,0.0
561,0.0
562,0.0
2,2, 1, 2, 0, 2, 0.00,60.00,Wednesday
265,16.700019063779983
266,16.700348334544326
2,2, 1, 2, 0, 2, 0.00,60.00,Wednesday
165,0.0
166,0.0
463,122989.9881880042
512,0.0
561,192981.18109411406
562,0.0
2,2, 1, 2, 0, 3, 0.00,60.00,Wednesday
265,16.7000000012002
266,16.700000025871663
2,2, 1, 2, 0, 3, 0.00,60.00,Wednesday
165,0.0
166,0.0
463,455035.18908561044
512,0.0
561,496210.2679254024
562,0.0
2,2, 1, 2, 0, 4, 0.00,60.00,Wednesday
265,16.700000000010025
266,16.70000000023845
2,2, 1, 2, 0, 4, 0.00,60.00,Wednesday
165,0.0
166,0.0
463,434220.70732648566
512,0.0
561,485532.41263389285
562,0.0
2,2, 1, 2, 0, 5, 0.00,60.00,Wednesday
265,16.700000000000113
266,16.70000000000282
2,2, 1, 2, 0, 5, 0.00,60.00,Wednesday
165,0.0
166,0.0
463,597079.7814831567
512,0.0
561,640546.4385559717
562,0.0
2,2, 1, 2, 0, 6, 0.00,60.00,Wednesday
265,16.7
266,16.700000000000035
2,2, 1, 2, 0, 6, 0.00,60.00,Wednesday
165,0.0
166,0.0
463,682947.294552858
512,0.0
561,720590.059263884
562,0.0
2,2, 1, 2, 0, 7, 0.00,60.00,Wednesday
265,22.261354515996384
266,22.260367502444698
2,2, 1, 2, 0, 7, 0.00,60.00,Wednesday
165,0.0
166,0.0
463,8989396.903608184
512,0.0
561,9025499.48294266
562,0.0
2,2, 1, 2, 0, 8, 0.00,60.00,Wednesday
265,22.199999999999996
266,22.199999999999996
2,2, 1, 2, 0, 8, 0.00,60.00,Wednesday
165,0.0
166,0.0
463,5338873.437266979
512,0.0
561,5389920.362943764
562,0.0
2,2, 1, 2, 0, 9, 0.00,60.00,Wednesday
265,22.200000000000003
266,22.2
2,2, 1, 2, 0, 9, 0.00,60.00,Wednesday
165,1760181.84
166,1760181.84
463,1937874.7677566772
512,0.0
561,1974933.0393222407
562,0.0
2,2, 1, 2, 0,10, 0.00,60.00,Wednesday
265,22.27262993863736
266,22.2
2,2, 1, 2, 0,10, 0.00,60.00,Wednesday
165,1760181.84
166,1760181.84
463,0.0
512,0.0
561,24515.724980882074
562,0.0
2,2, 1, 2, 0,11, 0.00,60.00,Wednesday
265,22.93711231693353
266,22.72731789316724
2,2, 1, 2, 0,11, 0.00,60.00,Wednesday
165,1760181.84
166,1760181.84
463,0.0
512,0.0
561,0.0
562,0.0
2,2, 1, 2, 0,12, 0.00,60.00,Wednesday
265,23.30092934803146
266,22.887348469542097
2,2, 1, 2, 0,12, 0.00,60.00,Wednesday
165,1408145.4720000003
166,1408145.4720000003
463,0.0
512,0.0
561,0.0
562,0.0
2,2, 1, 2, 0,13, 0.00,60.00,Wednesday
265,22.446921991402213
266,22.268565324444534
2,2, 1, 2, 0,13, 0.00,60.00,Wednesday
165,704072.7360000001
166,704072.7360000001
463,3506.3751363180945
512,0.0
561,345874.31384674273
562,0.0
2,2, 1, 2, 0,14, 0.00,60.00,Wednesday
265,23.080445566959618
266,22.679238045373822
2,2, 1, 2, 0,14, 0.00,60.00,Wednesday
165,1408145.4720000003
166,1408145.4720000003
463,0.0
512,0.0
561,0.0
562,0.0
2,2, 1, 2, 0,15, 0.00,60.00,Wednesday
265,23.555303371474285
266,23.20242089496897
2,2, 1, 2, 0,15, 0.00,60.00,Wednesday
165,1760181.84
166,1760181.84
463,0.0
512,0.0
561,0.0
562,0.0
2,2, 1, 2, 0,16, 0.00,60.00,Wednesday
265,23.744195223623965
266,23.40990152944951
2,2, 1, 2, 0,16, 0.00,60.00,Wednesday
165,1760181.84
166,1760181.84
463,0.0
512,0.0
561,0.0
562,0.0
2,2, 1, 2, 0,17, 0.00,60.00,Wednesday
265,23.675342556155748
266,23.406113992070544
2,2, 1, 2, 0,17, 0.00,60.00,Wednesday
165,1760181.84
166,1760181.84
463,0.0
512,0.0
561,0.0
562,0.0
2,2, 1, 2, 0,18, 0.00,60.00,Wednesday
265,23.627091948585466
266,23.413337390032435
2,2, 1, 2, 0,18, 0.00,60.00,Wednesday
165,1760181.84
166,1760181.84
463,0.0
512,0.0
561,0.0
562,0.0
2,2, 1, 2, 0,19, 0.00,60.00,Wednesday
265,22.562001377311038
266,22.419993504151115
2,2, 1, 2, 0,19, 0.00,60.00,Wednesday
165,880090.92
166,880090.92
463,0.0
512,0.0
561,91248.69989628058
562,0.0
2,2, 1, 2, 0,20, 0.00,60.00,Wednesday
265,22.20506805513245
266,22.203688056137963
2,2, 1, 2, 0,20, 0.00,60.00,Wednesday
165,0.0
166,0.0
463,1904551.677415853
512,0.0
561,2171538.93030295
562,0.0
2,2, 1, 2, 0,21, 0.00,60.00,Wednesday
265,20.35212771249536
266,20.307042763884407
2,2, 1, 2, 0,21, 0.00,60.00,Wednesday
165,0.0
166,0.0
463,0.0
512,0.0
561,0.0
562,0.0
2,2, 1, 2, 0,22, 0.00,60.00,Wednesday
265,19.059700451264725
266,19.00183904830962
2,2, 1, 2, 0,22, 0.00,60.00,Wednesday
165,0.0
166,0.0
463,0.0
512,0.0
561,0.0
562,0.0
2,2, 1, 2, 0,23, 0.00,60.00,Wednesday
265,18.362513984561616
266,18.2964494322447
2,2, 1, 2, 0,23, 0.00,60.00,Wednesday
165,0.0
166,0.0
463,0.0
512,0.0
561,0.0
562,0.0
2,2, 1, 2, 0,24, 0.00,60.00,Wednesday
265,17.642258441081548
266,17.567147587358384
2,2, 1, 2, 0,24, 0.00,60.00,Wednesday
165,0.0
166,0.0
463,0.0
512,0.0
561,0.0
562,0.0
2,3, 1, 3, 0, 1, 0.00,60.00,Thursday
265,17.363366367509972
266,17.28656567274851
2,3, 1, 3, 0, 1, 0.00,60.00,Thursday
165,0.0
166,0.0
463,0.0
512,0.0
561,0.0
562,0.0
2,3, 1, 3, 0, 2, 0.00,60.00,Thursday
265,17.102783170321874
266,17.024016226447927
2,3, 1, 3, 0, 2, 0.00,60.00,Thursday
165,0.0
166,0.0
463,0.0
512,0.0
561,0.0
562,0.0
2,3, 1, 3, 0, 3, 0.00,60.00,Thursday
265,16.85673345089244
266,16.776617606085416
2,3, 1, 3, 0, 3, 0.00,60.00,Thursday
165,0.0
166,0.0
463,0.0
512,0.0
561,0.0
562,0.0
2,3, 1, 3, 0, 4, 0.00,60.00,Thursday
265,16.700112481055573
266,16.700233100180508
2,3, 1, 3, 0, 4, 0.00,60.00,Thursday
165,0.0
166,0.0
463,34851.57627328626
512,0.0
561,148217.2875927699
562,0.0
2,3, 1, 3, 0, 5, 0.00,60.00,Thursday
265,16.700000567650623
266,16.70000137422354
2,3, 1, 3, 0, 5, 0.00,60.00,Thursday
165,0.0
166,0.0
463,248714.71124343437
512,0.0
561,292842.2775872437
562,0.0
2,3, 1, 3, 0, 6, 0.00,60.00,Thursday
265,16.700000003568338
266,16.700000010119503
2,3, 1, 3, 0, 6, 0.00,60.00,Thursday
165,0.0
166,0.0
463,313633.6928433531
512,0.0
561,375509.89414170693
562,0.0
2,3, 1, 3, 0, 7, 0.00,60.00,Thursday
265,22.280483199945284
266,22.27734855533623
2,3, 1, 3, 0, 7, 0.00,60.00,Thursday
165,0.0
166,0.0
463,8166303.602244673
512,0.0
561,8275831.018356612
562,0.0
2,3, 1, 3, 0, 8, 0.00,60.00,Thursday
265,22.2
266,22.200000000000006
2,3, 1, 3, 0, 8, 0.00,60.00,Thursday
165,0.0
166,0.0
463,5067343.677676409
512,0.0
561,5126750.474903661
562,0.0
2,3, 1, 3, 0, 9, 0.00,60.00,Thursday
265,22.2
266,22.199999999999996
2,3, 1, 3, 0, 9, 0.00,60.00,Thursday
165,1760181.84
166,1760181.84
463,1544151.2548454017
512,0.0
561,1690571.8006571038
562,0.0
2,3, 1, 3, 0,10, 0.00,60.00,Thursday
265,22.540689171196355
266,22.338699060990216
2,3, 1, 3, 0,10, 0.00,60.00,Thursday
165,1760181.84
166,1760181.84
463,0.0
512,0.0
561,0.0
562,0.0
2,3, 1, 3, 0,11, 0.00,60.00,Thursday
265,23.828486023055216
266,22.991534093416966
2,3, 1, 3, 0,11, 0.00,60.00,Thursday
165,1760181.84
166,1760181.84
463,0.0
512,3266286.362588276
561,0.0
562,0.0
2,3, 1, 3, 0,12, 0.00,60.00,Thursday
265,23.89999981193385
266,23.009536771883347
2,3, 1, 3, 0,12, 0.00,60.00,Thursday
165,1408145.4720000003
166,1408145.4720000003
463,0.0
512,1476422.7172687338
561,0.0
562,0.0
2,3, 1, 3, 0,13, 0.00,60.00,Thursday
265,23.651787852670186
266,22.358513994872727
2,3, 1, 3, 0,13, 0.00,60.00,Thursday
165,704072.7360000001
166,704072.7360000001
463,0.0
512,0.0
561,66394.42654937883
562,0.0
2,3, 1, 3, 0,14, 0.00,60.00,Thursday
265,23.894731938073654
266,23.085727873302375
2,3, 1, 3, 0,14, 0.00,60.00,Thursday
165,1408145.4720000003
166,1408145.4720000003
463,0.0
512,1656545.4150708858
561,0.0
562,0.0
2,3, 1, 3, 0,15, 0.00,60.00,Thursday
265,23.899895019173613
266,23.479687413780905
2,3, 1, 3, 0,15, 0.00,60.00,Thursday
165,1760181.84
166,1760181.84
463,0.0
512,1404930.5028902874
561,0.0
562,0.0
2,3, 1, 3, 0,16, 0.00,60.00,Thursday
265,23.899999831208067
266,23.56015418213683
2,3, 1, 3, 0,16, 0.00,60.00,Thursday
165,1760181.84
166,1760181.84
463,0.0
512,674665.3203618256
561,0.0
562,0.0
2,3, 1, 3, 0,17, 0.00,60.00,Thursday
265,23.89999999972183
266,23.468499335505488
2,3, 1, 3, 0,17, 0.00,60.00,Thursday
165,1760181.84
166,1760181.84
463,0.0
512,54711.63836173793
561,0.0
562,0.0
2,3, 1, 3, 0,18, 0.00,60.00,Thursday
265,23.789318806652346
266,23.382266641689448
2,3, 1, 3, 0,18, 0.00,60.00,Thursday
165,1760181.84
166,1760181.84
463,0.0
512,0.0
561,0.0
562,0.0
2,3, 1, 3, 0,19, 0.00,60.00,Thursday
265,22.642141778157974
266,22.380237515956065
2,3, 1, 3, 0,19, 0.00,60.00,Thursday
165,880090.92
166,880090.92
463,0.0
512,0.0
561,191740.55450555347
562,0.0
2,3, 1, 3, 0,20, 0.00,60.00,Thursday
265,22.205727100152142
266,22.20327291150076
2,3, 1, 3, 0,20, 0.00,60.00,Thursday
165,0.0
166,0.0
463,1890120.8448679685
512,0.0
561,2345064.5210644393
562,0.0
2,3, 1, 3, 0,21, 0.00,60.00,Thursday
265,20.370809758457437
266,20.265927730924414
2,3, 1, 3, 0,21, 0.00,60.00,Thursday
165,0.0
166,0.0
463,0.0
512,0.0
561,0.0
562,0.0
2,3, 1, 3, 0,22, 0.00,60.00,Thursday
265,19.136241474008916
266,18.99539837070833
2,3, 1, 3, 0,22, 0.00,60.00,Thursday
165,0.0
166,0.0
463,0.0
512,0.0
561,0.0
562,0.0
2,3, 1, 3, 0,23, 0.00,60.00,Thursday
265,18.48067034440009
266,18.318044606705023
2,3, 1, 3, 0,23, 0.00,60.00,Thursday
165,0.0
166,0.0
463,0.0
512,0.0
561,0.0
562,0.0
2,3, 1, 3, 0,24, 0.00,60.00,Thursday
265,17.765492123276772
266,17.579578165749087
2,3, 1, 3, 0,24, 0.00,60.00,Thursday
165,0.0
166,0.0
463,0.0
512,0.0
561,0.0
562,0.0
2,4, 1, 4, 0, 1, 0.00,60.00,Friday
265,17.42670009928136
266,17.241686409277058
2,4, 1, 4, 0, 1, 0.00,60.00,Friday
165,0.0
166,0.0
463,0.0
512,0.0
561,0.0
562,0.0
2,4, 1, 4, 0, 2, 0.00,60.00,Friday
265,16.97096858872918
266,16.77691011041542
2,4, 1, 4, 0, 2, 0.00,60.00,Friday
165,0.0
166,0.0
463,0.0
512,0.0
561,0.0
562,0.0
2,4, 1, 4, 0, 3, 0.00,60.00,Friday
265,16.700139219139082
266,16.7001411517692
2,4, 1, 4, 0, 3, 0.00,60.00,Friday
165,0.0
166,0.0
463,31425.054984038426
512,0.0
561,320106.3243812987
562,0.0
2,4, 1, 4, 0, 4, 0.00,60.00,Friday
265,16.700000962479916
266,16.70000131272449
2,4, 1, 4, 0, 4, 0.00,60.00,Friday
165,0.0
166,0.0
463,352764.6846687989
512,0.0
561,480859.7210298965
562,0.0
2,4, 1, 4, 0, 5, 0.00,60.00,Friday
265,16.700000009674817
266,16.700000016833545
2,4, 1, 4, 0, 5, 0.00,60.00,Friday
165,0.0
166,0.0
463,521656.0272604112
512,0.0
561,692374.6053939721
562,0.0
2,4, 1, 4, 0, 6, 0.00,60.00,Friday
265,16.700000000129922
266,16.700000000263664
2,4, 1, 4, 0, 6, 0.00,60.00,Friday
165,0.0
166,0.0
463,739362.8351774246
512,0.0
561,871219.4463502604
562,0.0
2,4, 1, 4, 0, 7, 0.00,60.00,Friday
265,22.255174648819345
266,22.251850964794787
2,4, 1, 4, 0, 7, 0.00,60.00,Friday
165,0.0
166,0.0
463,9135419.273132492
512,0.0
561,9255305.706999436
562,0.0
2,4, 1, 4, 0, 8, 0.00,60.00,Friday
265,22.2
266,22.2
2,4, 1, 4, 0, 8, 0.00,60.00,Friday
165,0.0
166,0.0
463,5486122.718573013
512,0.0
561,5620613.460596788
562,0.0
2,4, 1, 4, 0, 9, 0.00,60.00,Friday
265,22.2
266,22.199999999999996
2,4, 1, 4, 0, 9, 0.00,60.00,Friday
165,1760181.84
166,1760181.84
463,1980064.7940104038
512,0.0
561,2101504.7638694393
562,0.0
2,4, 1, 4, 0,10, 0.00,60.00,Friday
265,22.2
266,22.200000000000003
2,4, 1, 4, 0,10, 0.00,60.00,Friday
165,1760181.84
166,1760181.84
463,224128.61653290156
512,0.0
561,347543.55262627424
562,0.0
2,4, 1, 4, 0,11, 0.00,60.00,Friday
265,22.76038706188377
266,22.561791582579023
2,4, 1, 4, 0,11, 0.00,60.00,Friday
165,1760181.84
166,1760181.84
463,0.0
512,0.0
561,0.0
562,0.0
2,4, 1, 4, 0,12, 0.00,60.00,Friday
265,23.04886159624785
266,22.680568585800124
2,4, 1, 4, 0,12, 0.00,60.00,Friday
165,1408145.4720000003
166,1408145.4720000003
463,0.0
512,0.0
561,0.0
562,0.0
2,4, 1, 4, 0,13, 0.00,60.00,Friday
265,22.649104656887445
266,22.20031725931622
2,4, 1, 4, 0,13, 0.00,60.00,Friday
165,704072.7360000001
166,704072.7360000001
463,0.0
512,0.0
561,423780.8791687527
562,0.0
2,4, 1, 4, 0,14, 0.00,60.00,Friday
265,23.29166546659613
266,22.657854999208997
2,4, 1, 4, 0,14, 0.00,60.00,Friday
165,1408145.4720000003
166,1408145.4720000003
463,0.0
512,0.0
561,0.0
562,0.0
2,4, 1, 4, 0,15, 0.00,60.00,Friday
265,23.836644753231695
266,23.196422856074843
2,4, 1, 4, 0,15, 0.00,60.00,Friday
165,1760181.84
166,1760181.84
463,0.0
512,1022816.7908867145
561,0.0
562,0.0
2,4, 1, 4, 0,16, 0.00,60.00,Friday
265,23.89999774364788
266,23.445118627313292
2,4, 1, 4, 0,16, 0.00,60.00,Friday
165,1760181.84
166,1760181.84
463,0.0
512,1071749.3177278156
561,0.0
562,0.0
2,4, 1, 4, 0,17, 0.00,60.00,Friday
265,23.80927277134771
266,23.35846860474489
2,4, 1, 4, 0,17, 0.00,60.00,Friday
165,1760181.84
166,1760181.84
463,0.0
512,0.0
561,0.0
562,0.0
2,4, 1, 4, 0,18, 0.00,60.00,Friday
265,23.633474259309658
266,23.221285564770156
2,4, 1, 4, 0,18, 0.00,60.00,Friday
165,1760181.84
166,1760181.84
463,0.0
512,0.0
561,0.0
562,0.0
2,4, 1, 4, 0,19, 0.00,60.00,Friday
265,22.441854298609194
266,22.304929642324034
2,4, 1, 4, 0,19, 0.00,60.00,Friday
165,880090.92
166,880090.92
463,175740.2986350462
512,0.0
561,543567.383773622
562,0.0
2,4, 1, 4, 0,20, 0.00,60.00,Friday
265,22.200000127755892
266,22.200000012698442
2,4, 1, 4, 0,20, 0.00,60.00,Friday
165,0.0
166,0.0
463,2745322.117398763
512,0.0
561,3216450.1733233808
562,0.0
2,4, 1, 4, 0,21, 0.00,60.00,Friday
265,20.05014528852799
266,19.9722944263184
2,4, 1, 4, 0,21, 0.00,60.00,Friday
165,0.0
166,0.0
463,0.0
512,0.0
561,0.0
562,0.0
2,4, 1, 4, 0,22, 0.00,60.00,Friday
265,18.843849606300825
266,18.728204330596643
2,4, 1, 4, 0,22, 0.00,60.00,Friday
165,0.0
166,0.0
463,0.0
512,0.0
561,0.0
562,0.0
2,4, 1, 4, 0,23, 0.00,60.00,Friday
265,17.847262173174435
266,17.703708676408137
2,4, 1, 4, 0,23, 0.00,60.00,Friday
165,0.0
166,0.0
463,0.0
512,0.0
561,0.0
562,0.0
2,4, 1, 4, 0,24, 0.00,60.00,Friday
265,17.144012639766355
266,16.994887617804213
2,4, 1, 4, 0,24, 0.00,60.00,Friday
165,0.0
166,0.0
463,0.0
512,0.0
561,27961.37252567932
562,0.0
2,5, 1, 5, 0, 1, 0.00,60.00,Saturday
265,17.087578501046586
266,16.928647176916595
2,5, 1, 5, 0, 1, 0.00,60.00,Saturday
165,528054.552
166,528054.552
463,0.0
512,0.0
561,0.0
562,0.0
2,5, 1, 5, 0, 2, 0.00,60.00,Saturday
265,17.06038903949675
266,16.898235342718266
2,5, 1, 5, 0, 2, 0.00,60.00,Saturday
165,528054.552
166,528054.552
463,0.0
512,0.0
561,0.0
562,0.0
2,5, 1, 5, 0, 3, 0.00,60.00,Saturday
265,16.938227943886936
266,16.773484055938333
2,5, 1, 5, 0, 3, 0.00,60.00,Saturday
165,528054.552
166,528054.552
463,0.0
512,0.0
561,0.0
562,0.0
2,5, 1, 5, 0, 4, 0.00,60.00,Saturday
265,16.705690649876548
266,16.700339131120764
2,5, 1, 5, 0, 4, 0.00,60.00,Saturday
165,528054.552
166,528054.552
463,0.0
512,0.0
561,253473.60646153928
562,0.0
2,5, 1, 5, 0, 5, 0.00,60.00,Saturday
265,16.70003261024695
266,16.700002620182882
2,5, 1, 5, 0, 5, 0.00,60.00,Saturday
165,528054.552
166,528054.552
463,315048.5973819356
512,0.0
561,436365.07342642976
562,0.0
2,5, 1, 5, 0, 6, 0.00,60.00,Saturday
265,16.7000002535566
266,16.700000026302813
2,5, 1, 5, 0, 6, 0.00,60.00,Saturday
165,528054.552
166,528054.552
463,444369.18251592066
512,0.0
561,576608.5337497862
562,0.0
2,5, 1, 5, 0, 7, 0.00,60.00,Saturday
265,16.700000001580694
266,16.70000000021003
2,5, 1, 5, 0, 7, 0.00,60.00,Saturday
165,528054.552
166,528054.552
463,358489.22674804454
512,0.0
561,458497.11652772606
562,0.0
2,5, 1, 5, 0, 8, 0.00,60.00,Saturday
265,16.700000000012007
266,16.700000000001936
2,5, 1, 5, 0, 8, 0.00,60.00,Saturday
165,528054.552
166,528054.552
463,435049.3734389354
512,0.0
561,526906.1680932976
562,0.0
2,5, 1, 5, 0, 9, 0.00,60.00,Saturday
265,17.874189106002454
266,16.7
2,5, 1, 5, 0, 9, 0.00,60.00,Saturday
165,528054.552
166,528054.552
463,0.0
512,0.0
561,303387.405587628
562,0.0
2,5, 1, 5, 0,10, 0.00,60.00,Saturday
265,20.78192877646912
266,16.98288198404809
2,5, 1, 5, 0,10, 0.00,60.00,Saturday
165,528054.552
166,528054.552
463,0.0
512,0.0
561,0.0
562,0.0
2,5, 1, 5, 0,11, 0.00,60.00,Saturday
265,20.453717194889506
266,17.313259003242006
2,5, 1, 5, 0,11, 0.00,60.00,Saturday
165,528054.552
166,528054.552
463,0.0
512,0.0
561,0.0
562,0.0
2,5, 1, 5, 0,12, 0.00,60.00,Saturday
265,20.73931964990544
266,17.75630786706141
2,5, 1, 5, 0,12, 0.00,60.00,Saturday
165,528054.552
166,528054.552
463,0.0
512,0.0
561,0.0
562,0.0
2,5, 1, 5, 0,13, 0.00,60.00,Saturday
265,20.68838942071967
266,18.047582043142416
2,5, 1, 5, 0,13, 0.00,60.00,Saturday
165,528054.552
166,528054.552
463,0.0
512,0.0
561,0.0
562,0.0
2,5, 1, 5, 0,14, 0.00,60.00,Saturday
265,23.970105162801136
266,18.27621120816898
2,5, 1, 5, 0,14, 0.00,60.00,Saturday
165,528054.552
166,528054.552
463,0.0
512,0.0
561,0.0
562,0.0
2,5, 1, 5, 0,15, 0.00,60.00,Saturday
265,26.69008458970014
266,18.611488964345448
2,5, 1, 5, 0,15, 0.00,60.00,Saturday
165,528054.552
166,528054.552
463,0.0
512,0.0
561,0.0
562,0.0
2,5, 1, 5, 0,16, 0.00,60.00,Saturday
265,27.10060295020545
266,18.708642204637545
2,5, 1, 5, 0,16, 0.00,60.00,Saturday
165,528054.552
166,528054.552
463,0.0
512,0.0
561,0.0
562,0.0
2,5, 1, 5, 0,17, 0.00,60.00,Saturday
265,24.956244360206107
266,18.295348095101147
2,5, 1, 5, 0,17, 0.00,60.00,Saturday
165,528054.552
166,528054.552
463,0.0
512,0.0
561,0.0
562,0.0
2,5, 1, 5, 0,18, 0.00,60.00,Saturday
265,22.992990217240227
266,17.819051222994734
2,5, 1, 5, 0,18, 0.00,60.00,Saturday
165,528054.552
166,528054.552
463,0.0
512,0.0
561,0.0
562,0.0
2,5, 1, 5, 0,19, 0.00,60.00,Saturday
265,21.717199558204154
266,17.421090561460318
2,5, 1, 5, 0,19, 0.00,60.00,Saturday
165,528054.552
166,528054.552
463,0.0
512,0.0
561,0.0
562,0.0
2,5, 1, 5, 0,20, 0.00,60.00,Saturday
265,20.652052348122034
266,17.07888295033167
2,5, 1, 5, 0,20, 0.00,60.00,Saturday
165,528054.552
166,528054.552
463,0.0
512,0.0
561,0.0
562,0.0
2,5, 1, 5, 0,21, 0.00,60.00,Saturday
265,19.66797353957565
266,16.77141558268195
2,5, 1, 5, 0,21, 0.00,60.00,Saturday
165,528054.552
166,528054.552
463,0.0
512,0.0
561,0.0
562,0.0
2,5, 1, 5, 0,22, 0.00,60.00,Saturday
265,19.12097026438096
266,16.700001631665383
2,5, 1, 5, 0,22, 0.00,60.00,Saturday
165,528054.552
166,528054.552
463,0.0
512,0.0
561,164876.2289557853
562,0.0
2,5, 1, 5, 0,23, 0.00,60.00,Saturday
265,18.34963064078108
266,16.700000003459976
2,5, 1, 5, 0,23, 0.00,60.00,Saturday
165,528054.552
166,528054.552
463,0.0
512,0.0
561,555584.2867613055
562,0.0
2,5, 1, 5, 0,24, 0.00,60.00,Saturday
265,17.948254765503286
266,16.700000000018523
2,5, 1, 5, 0,24, 0.00,60.00,Saturday
165,528054.552
166,528054.552
463,0.0
512,0.0
561,761108.4118229488
562,0.0
2,6, 1, 6, 0, 1, 0.00,60.00,Sunday
265,17.35019609010132
266,16.700000000000138
2,6, 1, 6, 0, 1, 0.00,60.00,Sunday
165,528054.552
166,528054.552
463,0.0
512,0.0
561,1033231.0921088821
562,0.0
2,6, 1, 6, 0, 2, 0.00,60.00,Sunday
265,16.997618603780158
266,16.7
2,6, 1, 6, 0, 2, 0.00,60.00,Sunday
165,528054.552
166,528054.552
463,0.0
512,0.0
561,1146886.1605063705
562,0.0
2,6, 1, 6, 0, 3, 0.00,60.00,Sunday
265,16.725012436217483
266,16.7
2,6, 1, 6, 0, 3, 0.00,60.00,Sunday
165,528054.552
166,528054.552
463,0.0
512,0.0
561,1188122.4887232492
562,0.0
2,6, 1, 6, 0, 4, 0.00,60.00,Sunday
265,16.700107798856752
266,16.7
2,6, 1, 6, 0, 4, 0.00,60.00,Sunday
165,528054.552
166,528054.552
463,236081.01103017246
512,0.0
561,1136298.9682231357
562,0.0
2,6, 1, 6, 0, 5, 0.00,60.00,Sunday
265,16.700000520816268
266,16.7
2,6, 1, 6, 0, 5, 0.00,60.00,Sunday
165,528054.552
166,528054.552
463,276060.74609953247
512,0.0
561,1081380.7902995434
562,0.0
2,6, 1, 6, 0, 6, 0.00,60.00,Sunday
265,16.70000000413225
266,16.699999999999996
2,6, 1, 6, 0, 6, 0.00,60.00,Sunday
165,528054.552
166,528054.552
463,460160.69296104857
512,0.0
561,1163381.5922929607
562,0.0
2,6, 1, 6, 0, 7, 0.00,60.00,Sunday
265,16.70000000004686
266,16.7
2,6, 1, 6, 0, 7, 0.00,60.00,Sunday
165,528054.552
166,528054.552
463,665975.6754390311
512,0.0
561,1311859.718143305
562,0.0
2,6, 1, 6, 0, 8, 0.00,60.00,Sunday
265,16.700000000000642
266,16.7
2,6, 1, 6, 0, 8, 0.00,60.00,Sunday
165,528054.552
166,528054.552
463,815896.0475686465
512,0.0
561,1415677.925959916
562,0.0
2,6, 1, 6, 0, 9, 0.00,60.00,Sunday
265,16.779237174922677
266,16.7
2,6, 1, 6, 0, 9, 0.00,60.00,Sunday
165,528054.552
166,528054.552
463,0.0
512,0.0
561,1158865.524723619
562,0.0
2,6, 1, 6, 0,10, 0.00,60.00,Sunday
265,18.766523298693865
266,16.7
2,6, 1, 6, 0,10, 0.00,60.00,Sunday
165,528054.552
166,528054.552
463,0.0
512,0.0
561,488593.39253255597
562,0.0
2,6, 1, 6, 0,11, 0.00,60.00,Sunday
265,20.653454906043166
266,16.719906043350363
2,6, 1, 6, 0,11, 0.00,60.00,Sunday
165,528054.552
166,528054.552
463,0.0
512,0.0
561,0.0
562,0.0
2,6, 1, 6, 0,12, 0.00,60.00,Sunday
265,23.07862588879616
266,16.9309397153302
2,6, 1, 6, 0,12, 0.00,60.00,Sunday
165,528054.552
166,528054.552
463,0.0
512,0.0
561,0.0
562,0.0
2,6, 1, 6, 0,13, 0.00,60.00,Sunday
265,24.855228057281366
266,17.18108906436681
2,6, 1, 6, 0,13, 0.00,60.00,Sunday
165,528054.552
166,528054.552
463,0.0
512,0.0
561,0.0
562,0.0
2,6, 1, 6, 0,14, 0.00,60.00,Sunday
265,24.908718209686267
266,17.434773381156575
2,6, 1, 6, 0,14, 0.00,60.00,Sunday
165,528054.552
166,528054.552
463,0.0
512,0.0
561,0.0
562,0.0
2,6, 1, 6, 0,15, 0.00,60.00,Sunday
265,26.29366278058673
266,17.619669205008393
2,6, 1, 6, 0,15, 0.00,60.00,Sunday
165,528054.552
166,528054.552
463,0.0
512,0.0
561,0.0
562,0.0
2,6, 1, 6, 0,16, 0.00,60.00,Sunday
265,26.323675134425923
266,17.633706568024152
2,6, 1, 6, 0,16, 0.00,60.00,Sunday
165,528054.552
166,528054.552
463,0.0
512,0.0
561,0.0
562,0.0
2,6, 1, 6, 0,17, 0.00,60.00,Sunday
265,24.10393801347903
266,17.19166791195857
2,6, 1, 6, 0,17, 0.00,60.00,Sunday
165,528054.552
166,528054.552
463,0.0
512,0.0
561,0.0
562,0.0
2,6, 1, 6, 0,18, 0.00,60.00,Sunday
265,22.378563220482885
266,16.78705522242797
2,6, 1, 6, 0,18, 0.00,60.00,Sunday
165,528054.552
166,528054.552
463,0.0
512,0.0
561,7687.969789961059
562,0.0
2,6, 1, 6, 0,19, 0.00,60.00,Sunday
265,21.254993219819845
266,16.701710286177214
2,6, 1, 6, 0,19, 0.00,60.00,Sunday
165,528054.552
166,528054.552
463,0.0
512,0.0
561,270064.0917089988
562,0.0
2,6, 1, 6, 0,20, 0.00,60.00,Sunday
265,20.373608028463803
266,16.700002028438753
2,6, 1, 6, 0,20, 0.00,60.00,Sunday
165,528054.552
166,528054.552
463,0.0
512,0.0
561,495765.5965040593
562,0.0
2,6, 1, 6, 0,21, 0.00,60.00,Sunday
265,19.64843922901928
266,16.70000000489396
2,6, 1, 6, 0,21, 0.00,60.00,Sunday
165,528054.552
166,528054.552
463,0.0
512,0.0
561,614763.5556083317
562,0.0
2,6, 1, 6, 0,22, 0.00,60.00,Sunday
265,18.85441523476603
266,16.700000000013997
2,6, 1, 6, 0,22, 0.00,60.00,Sunday
165,528054.552
166,528054.552
463,0.0
512,0.0
561,739344.9767520941
562,0.0
2,6, 1, 6, 0,23, 0.00,60.00,Sunday
265,18.48409016316507
266,16.700000000000085
2,6, 1, 6, 0,23, 0.00,60.00,Sunday
165,528054.552
166,528054.552
463,0.0
512,0.0
561,845101.9010785426
562,0.0
2,6, 1, 6, 0,24, 0.00,60.00,Sunday
265,17.937299869304738
266,16.700000000000003
2,6, 1, 6, 0,24, 0.00,60.00,Sunday
165,528054.552
166,528054.552
463,0.0
512,0.0
561,996915.871709673
562,0.0
2,7, 1, 7, 0, 1, 0.00,60.00,Monday
265,16.96057962729885
266,16.7
2,7, 1, 7, 0, 1, 0.00,60.00,Monday
165,0.0
166,0.0
463,113018.10010405426
512,0.0
561,2194592.8560426803
562,0.0
2,7, 1, 7, 0, 2, 0.00,60.00,Monday
265,16.700000016959784
266,16.700000000000003
2,7, 1, 7, 0, 2, 0.00,60.00,Monday
165,0.0
166,0.0
463,753970.3534823342
512,0.0
561,2481530.147917917
562,0.0
2,7, 1, 7, 0, 3, 0.00,60.00,Monday
265,16.700000000371116
266,16.700000000000003
2,7, 1, 7, 0, 3, 0.00,60.00,Monday
165,0.0
166,0.0
463,1271233.6221094022
512,0.0
561,2587767.0629386352
562,0.0
2,7, 1, 7, 0, 4, 0.00,60.00,Monday
265,16.70000000000906
266,16.699999999999996
2,7, 1, 7, 0, 4, 0.00,60.00,Monday
165,0.0
166,0.0
463,1475459.5456452735
512,0.0
561,2650207.2888844833
562,0.0
2,7, 1, 7, 0, 5, 0.00,60.00,Monday
265,16.700000000000248
266,16.7
2,7, 1, 7, 0, 5, 0.00,60.00,Monday
165,0.0
166,0.0
463,1686395.2718284
512,0.0
561,2733169.2413315736
562,0.0
2,7, 1, 7, 0, 6, 0.00,60.00,Monday
265,16.700000000000003
266,16.699999999999996
2,7, 1, 7, 0, 6, 0.00,60.00,Monday
165,0.0
166,0.0
463,1808017.5182193425
512,0.0
561,2792430.8005579263
562,0.0
2,7, 1, 7, 0, 7, 0.00,60.00,Monday
265,22.209412977815987
266,22.197313503899032
2,7, 1, 7, 0, 7, 0.00,60.00,Monday
165,0.0
166,0.0
463,10985570.958732136
512,0.0
561,12228474.710892852
562,0.0
2,7, 1, 7, 0, 8, 0.00,60.00,Monday
265,22.200000000000003
266,22.200000000000003
2,7, 1, 7, 0, 8, 0.00,60.00,Monday
165,0.0
166,0.0
463,7174702.362178597
512,0.0
561,8384105.474755719
562,0.0
2,7, 1, 7, 0, 9, 0.00,60.00,Monday
265,22.2
266,22.2
2,7, 1, 7, 0, 9, 0.00,60.00,Monday
165,1760181.84
166,1760181.84
463,3148123.499252355
512,0.0
561,4455690.568156418
562,0.0