Program Version,EnergyPlus, Version 22.2.0-c249759bad, YMD=2022.11.30 14:22
1,5,Environment Title[],Latitude[deg],Longitude[deg],Time Zone[],Elevation[m]
2,8,Day of Simulation[],Month[],Day of Month[],DST Indicator[1=yes 0=no],Hour[],StartMinute[],EndMinute[],DayType
3,5,Cumulative Day of Simulation[],Month[],Day of Month[],DST Indicator[1=yes 0=no],DayType  ! When Daily Report Variables Requested
4,2,Cumulative Days of Simulation[],Month[]  ! When Monthly Report Variables Requested
5,1,Cumulative Days of Simulation[] ! When Run Period Report Variables Requested
6,1,Calendar Year of Simulation[] ! When Annual Report Variables Requested
165,1,ZONE_0,Zone Lights Electricity Energy [J] !Hourly
166,1,ZONE_1,Zone Lights Electricity Energy [J] !Hourly
265,1,ZONE_0,Zone Mean Air Temperature [C] !TimeStep
266,1,ZONE_1,Zone Mean Air Temperature [C] !TimeStep
463,1,ZONE_0 IDEAL LOADS SYSTEM,Zone Ideal Loads Supply Air Total Heating Energy [J] !Hourly
512,1,ZONE_0 IDEAL LOADS SYSTEM,Zone Ideal Loads Supply Air Total Cooling Energy [J] !Hourly
561,1,ZONE_1 IDEAL LOADS SYSTEM,Zone Ideal Loads Supply Air Total Heating Energy [J] !Hourly
562,1,ZONE_1 IDEAL LOADS SYSTEM,Zone Ideal Loads Supply Air Total Cooling Energy [J] !Hourly
End of Data Dictionary
1,RUN PERIOD 1,  47.47,-122.32,  -8.00, 122.00
2,1, 1, 1, 0, 1, 0.00,60.00,Tuesday
265,16.700003578492694
266,16.700003639762517
2,1, 1, 1, 0, 1, 0.00,60.00,Tuesday
165,0.0
166,0.0
463,14315392.182669738
512,0.0
561,14385340.040644865
562,0.0
2,1, 1, 1, 0, 2, 0.00,60.00,Tuesday
265,16.700000446805415
266,16.700000455379605
2,1, 1, 1, 0, 2, 0.00,60.00,Tuesday
165,0.0
166,0.0
463,14882654.457892168
512,0.0
561,14955792.302587077
562,0.0
2,1, 1, 1, 0, 3, 0.00,60.00,Tuesday
265,16.700000056305147
266,16.700000057500482
2,1, 1, 1, 0, 3, 0.00,60.00,Tuesday
165,0.0
166,0.0
463,15130991.731565243
512,0.0
561,15205330.418338286
562,0.0
2,1, 1, 1, 0, 4, 0.00,60.00,Tuesday
265,16.700000006976243
266,16.70000000713735
2,1, 1, 1, 0, 4, 0.00,60.00,Tuesday
165,0.0
166,0.0
463,14870078.48817766
512,0.0
561,14942141.610675564
562,0.0
2,1, 1, 1, 0, 5, 0.00,60.00,Tuesday
265,16.700000000842227
266,16.70000000086318
2,1, 1, 1, 0, 5, 0.00,60.00,Tuesday
165,0.0
166,0.0
463,14358322.214693276
512,0.0
561,14426968.540357336
562,0.0
2,1, 1, 1, 0, 6, 0.00,60.00,Tuesday
265,16.70000000009677
266,16.70000000009934
2,1, 1, 1, 0, 6, 0.00,60.00,Tuesday
165,0.0
166,0.0
463,13466766.014420874
512,0.0
561,13531489.121868623
562,0.0
2,1, 1, 1, 0, 7, 0.00,60.00,Tuesday
265,22.138401951902505
266,22.138350525415774
2,1, 1, 1, 0, 7, 0.00,60.00,Tuesday
165,0.0
166,0.0
463,28921575.84106068
512,0.0
561,29026484.358036883
562,0.0
2,1, 1, 1, 0, 8, 0.00,60.00,Tuesday
265,22.2
266,22.200000000000003
2,1, 1, 1, 0, 8, 0.00,60.00,Tuesday
165,0.0
166,0.0
463,24071678.04700211
512,0.0
561,24134011.01594376
562,0.0
2,1, 1, 1, 0, 9, 0.00,60.00,Tuesday
265,22.199999999999996
266,22.199999999999996
2,1, 1, 1, 0, 9, 0.00,60.00,Tuesday
165,2365200.0
166,2365200.0
463,17555776.938899893
512,0.0
561,17630354.910393227
562,0.0
2,1, 1, 1, 0,10, 0.00,60.00,Tuesday
265,22.200000000000003
266,22.199999999999996
2,1, 1, 1, 0,10, 0.00,60.00,Tuesday
165,2365200.0
166,2365200.0
463,12892964.34700945
512,0.0
561,13030860.369621452
562,0.0
2,1, 1, 1, 0,11, 0.00,60.00,Tuesday
265,22.199999999999996
266,22.200000000000003
2,1, 1, 1, 0,11, 0.00,60.00,Tuesday
165,2365200.0
166,2365200.0
463,9353409.175047956
512,0.0
561,9580504.816667872
562,0.0
2,1, 1, 1, 0,12, 0.00,60.00,Tuesday
265,22.2
266,22.2
2,1, 1, 1, 0,12, 0.00,60.00,Tuesday
165,1892160.0
166,1892160.0
463,9177477.490964344
512,0.0
561,9389618.28966159
562,0.0
2,1, 1, 1, 0,13, 0.00,60.00,Tuesday
265,22.200000000000003
266,22.2
2,1, 1, 1, 0,13, 0.00,60.00,Tuesday
165,946080.0
166,946080.0
463,12239936.778988644
512,0.0
561,12491273.499058343
562,0.0
2,1, 1, 1, 0,14, 0.00,60.00,Tuesday
265,22.199999999999996
266,22.199999999999996
2,1, 1, 1, 0,14, 0.00,60.00,Tuesday
165,1892160.0
166,1892160.0
463,11230758.468134038
512,0.0
561,11607415.233390165
562,0.0
2,1, 1, 1, 0,15, 0.00,60.00,Tuesday
265,22.199999999999996
266,22.199999999999996
2,1, 1, 1, 0,15, 0.00,60.00,Tuesday
165,2365200.0
166,2365200.0
463,10604448.071209272
512,0.0
561,10978484.522024777
562,0.0
2,1, 1, 1, 0,16, 0.00,60.00,Tuesday
265,22.2
266,22.200000000000003
2,1, 1, 1, 0,16, 0.00,60.00,Tuesday
165,2365200.0
166,2365200.0
463,11902071.026294822
512,0.0
561,12198286.374427214
562,0.0
2,1, 1, 1, 0,17, 0.00,60.00,Tuesday
265,22.199999999999996
266,22.199999999999996
2,1, 1, 1, 0,17, 0.00,60.00,Tuesday
165,2365200.0
166,2365200.0
463,13674815.811607614
512,0.0
561,13862401.049392724
562,0.0
2,1, 1, 1, 0,18, 0.00,60.00,Tuesday
265,22.2
266,22.199999999999992
2,1, 1, 1, 0,18, 0.00,60.00,Tuesday
165,2365200.0
166,2365200.0
463,14602544.54589205
512,0.0
561,14737706.750112323
562,0.0
2,1, 1, 1, 0,19, 0.00,60.00,Tuesday
265,22.2
266,22.2
2,1, 1, 1, 0,19, 0.00,60.00,Tuesday
165,1182600.0
166,1182600.0
463,17341538.995414197
512,0.0
561,17457323.714479554
562,0.0
2,1, 1, 1, 0,20, 0.00,60.00,Tuesday
265,22.2
266,22.2
2,1, 1, 1, 0,20, 0.00,60.00,Tuesday
165,0.0
166,0.0
463,20533116.078687675
512,0.0
561,20643703.935424916
562,0.0
2,1, 1, 1, 0,21, 0.00,60.00,Tuesday
265,17.047389036228065
266,17.045193395129644
2,1, 1, 1, 0,21, 0.00,60.00,Tuesday
165,0.0
166,0.0
463,5983749.555767102
512,0.0
561,6042965.015305028
562,0.0
2,1, 1, 1, 0,22, 0.00,60.00,Tuesday
265,16.7130110623801
266,16.71306063849695
2,1, 1, 1, 0,22, 0.00,60.00,Tuesday
165,0.0
166,0.0
463,9346304.521775877
512,0.0
561,9438684.678690763
562,0.0
2,1, 1, 1, 0,23, 0.00,60.00,Tuesday
265,16.700252521032642
266,16.70025570107262
2,1, 1, 1, 0,23, 0.00,60.00,Tuesday
165,0.0
166,0.0
463,12526582.558816362
512,0.0
561,12614243.24037852
562,0.0
2,1, 1, 1, 0,24, 0.00,60.00,Tuesday
265,16.70002937066593
266,16.700029811718647
2,1, 1, 1, 0,24, 0.00,60.00,Tuesday
165,0.0
166,0.0
463,13548158.73908776
512,0.0
561,13623116.945486734
562,0.0
2,2, 1, 2, 0, 1, 0.00,60.00,Wednesday
265,16.70000336198367
266,16.700003419104366
2,2, 1, 2, 0, 1, 0.00,60.00,Wednesday
165,0.0
166,0.0
463,13344205.27018405
512,0.0
561,13410753.439178634
562,0.0
2,2, 1, 2, 0, 2, 0.00,60.00,Wednesday
265,16.700000388093684
266,16.700000395393065
2,2, 1, 2, 0, 2, 0.00,60.00,Wednesday
165,0.0
166,0.0
463,13410139.29984483
512,0.0
561,13470799.21376049
562,0.0
2,2, 1, 2, 0, 3, 0.00,60.00,Wednesday
265,16.700000045143923
266,16.700000046077168
2,2, 1, 2, 0, 3, 0.00,60.00,Wednesday
165,0.0
166,0.0
463,13565037.916515155
512,0.0
561,13627058.34477848
562,0.0
2,2, 1, 2, 0, 4, 0.00,60.00,Wednesday
265,16.70000000515737
266,16.70000000527332
2,2, 1, 2, 0, 4, 0.00,60.00,Wednesday
165,0.0
166,0.0
463,13312798.698245315
512,0.0
561,13374886.071701536
562,0.0
2,2, 1, 2, 0, 5, 0.00,60.00,Wednesday
265,16.70000000059521
266,16.700000000609677
2,2, 1, 2, 0, 5, 0.00,60.00,Wednesday
165,0.0
166,0.0
463,13397285.568484759
512,0.0
561,13457460.046559116
562,0.0
2,2, 1, 2, 0, 6, 0.00,60.00,Wednesday
265,16.70000000006925
266,16.700000000071064
2,2, 1, 2, 0, 6, 0.00,60.00,Wednesday
165,0.0
166,0.0
463,13563132.887891756
512,0.0
561,13626606.186394611
562,0.0
2,2, 1, 2, 0, 7, 0.00,60.00,Wednesday
265,22.13802008827322
266,22.137964001820194
2,2, 1, 2, 0, 7, 0.00,60.00,Wednesday
165,0.0
166,0.0
463,29670353.021873016
512,0.0
561,29779950.453511488
562,0.0
2,2, 1, 2, 0, 8, 0.00,60.00,Wednesday
265,22.2
266,22.2
2,2, 1, 2, 0, 8, 0.00,60.00,Wednesday
165,0.0
166,0.0
463,23967815.545503248
512,0.0
561,24033771.812293194
562,0.0
2,2, 1, 2, 0, 9, 0.00,60.00,Wednesday
265,22.2
266,22.199999999999996
2,2, 1, 2, 0, 9, 0.00,60.00,Wednesday
165,2365200.0
166,2365200.0
463,17702945.168064017
512,0.0
561,17782226.584490933
562,0.0
2,2, 1, 2, 0,10, 0.00,60.00,Wednesday
265,22.199999999999996
266,22.199999999999992
2,2, 1, 2, 0,10, 0.00,60.00,Wednesday
165,2365200.0
166,2365200.0
463,13573225.422437359
512,0.0
561,13732933.306507967
562,0.0
2,2, 1, 2, 0,11, 0.00,60.00,Wednesday
265,22.2
266,22.2
2,2, 1, 2, 0,11, 0.00,60.00,Wednesday
165,2365200.0
166,2365200.0
463,10347496.482832795
512,0.0
561,10597178.171354596
562,0.0
2,2, 1, 2, 0,12, 0.00,60.00,Wednesday
265,22.2
266,22.199999999999996
2,2, 1, 2, 0,12, 0.00,60.00,Wednesday
165,1892160.0
166,1892160.0
463,8191557.854514314
512,0.0
561,8569841.47622415
562,0.0
2,2, 1, 2, 0,13, 0.00,60.00,Wednesday
265,22.200000000000003
266,22.200000000000003
2,2, 1, 2, 0,13, 0.00,60.00,Wednesday
165,946080.0
166,946080.0
463,10571047.44551867
512,0.0
561,10889518.657353899
562,0.0
2,2, 1, 2, 0,14, 0.00,60.00,Wednesday
265,22.199999999999996
266,22.2
2,2, 1, 2, 0,14, 0.00,60.00,Wednesday
165,1892160.0
166,1892160.0
463,9812378.906806381
512,0.0
561,10094647.938929139
562,0.0
2,2, 1, 2, 0,15, 0.00,60.00,Wednesday
265,22.200000000000003
266,22.2
2,2, 1, 2, 0,15, 0.00,60.00,Wednesday
165,2365200.0
166,2365200.0
463,9184842.634486517
512,0.0
561,9507516.926632354
562,0.0
2,2, 1, 2, 0,16, 0.00,60.00,Wednesday
265,22.2
266,22.2
2,2, 1, 2, 0,16, 0.00,60.00,Wednesday
165,2365200.0
166,2365200.0
463,9991293.976035058
512,0.0
561,10317659.221909018
562,0.0
2,2, 1, 2, 0,17, 0.00,60.00,Wednesday
265,22.199999999999996
266,22.2
2,2, 1, 2, 0,17, 0.00,60.00,Wednesday
165,2365200.0
166,2365200.0
463,11011555.18851296
512,0.0
561,11212794.552426934
562,0.0
2,2, 1, 2, 0,18, 0.00,60.00,Wednesday
265,22.2
266,22.200000000000003
2,2, 1, 2, 0,18, 0.00,60.00,Wednesday
165,2365200.0
166,2365200.0
463,11212872.364202034
512,0.0
561,11332226.74242554
562,0.0
2,2, 1, 2, 0,19, 0.00,60.00,Wednesday
265,22.199999999999996
266,22.2
2,2, 1, 2, 0,19, 0.00,60.00,Wednesday
165,1182600.0
166,1182600.0
463,13681721.780920906
512,0.0
561,13775058.556569273
562,0.0
2,2, 1, 2, 0,20, 0.00,60.00,Wednesday
265,22.199999999999996
266,22.2
2,2, 1, 2, 0,20, 0.00,60.00,Wednesday
165,0.0
166,0.0
463,16876475.69746709
512,0.0
561,16968320.675197147
562,0.0
2,2, 1, 2, 0,21, 0.00,60.00,Wednesday
265,17.134381445580026
266,17.131684493002428
2,2, 1, 2, 0,21, 0.00,60.00,Wednesday
165,0.0
166,0.0
463,3307823.8575033904
512,0.0
561,3350338.3233855003
562,0.0
2,2, 1, 2, 0,22, 0.00,60.00,Wednesday
265,16.7119740319478
266,16.712052632170604
2,2, 1, 2, 0,22, 0.00,60.00,Wednesday
165,0.0
166,0.0
463,6999244.169046526
512,0.0
561,7068068.060984228
562,0.0
2,2, 1, 2, 0,23, 0.00,60.00,Wednesday
265,16.700182565643846
266,16.70018560610397
2,2, 1, 2, 0,23, 0.00,60.00,Wednesday
165,0.0
166,0.0
463,10664519.208905311
512,0.0
561,10748881.275300942
562,0.0
2,2, 1, 2, 0,24, 0.00,60.00,Wednesday
265,16.70001963983686
266,16.700020019075954
2,2, 1, 2, 0,24, 0.00,60.00,Wednesday
165,0.0
166,0.0
463,12019438.851330156
512,0.0
561,12093276.328029951
562,0.0
2,3, 1, 3, 0, 1, 0.00,60.00,Thursday
265,16.700002139569914
266,16.700002185471163
2,3, 1, 3, 0, 1, 0.00,60.00,Thursday
165,0.0
166,0.0
463,12289465.614157818
512,0.0
561,12355872.563886661
562,0.0
2,3, 1, 3, 0, 2, 0.00,60.00,Thursday
265,16.700000219888665
266,16.70000022498104
2,3, 1, 3, 0, 2, 0.00,60.00,Thursday
165,0.0
166,0.0
463,11526580.395032957
512,0.0
561,11586803.649890935
562,0.0
2,3, 1, 3, 0, 3, 0.00,60.00,Thursday
265,16.700000022227602
266,16.7000000227745
2,3, 1, 3, 0, 3, 0.00,60.00,Thursday
165,0.0
166,0.0
463,11133583.720699603
512,0.0
561,11184337.02676433
562,0.0
2,3, 1, 3, 0, 4, 0.00,60.00,Thursday
265,16.70000000222012
266,16.700000002278102
2,3, 1, 3, 0, 4, 0.00,60.00,Thursday
165,0.0
166,0.0
463,10946216.984553622
512,0.0
561,10996470.120136473
562,0.0
2,3, 1, 3, 0, 5, 0.00,60.00,Thursday
265,16.700000000224563
266,16.700000000230787
2,3, 1, 3, 0, 5, 0.00,60.00,Thursday
165,0.0
166,0.0
463,11073245.470246065
512,0.0
561,11123506.959854707
562,0.0
2,3, 1, 3, 0, 6, 0.00,60.00,Thursday
265,16.70000000002294
266,16.70000000002361
2,3, 1, 3, 0, 6, 0.00,60.00,Thursday
165,0.0
166,0.0
463,11237929.612139339
512,0.0
561,11291334.725785144
562,0.0
2,3, 1, 3, 0, 7, 0.00,60.00,Thursday
265,22.139796877643153
266,22.139747291677555
2,3, 1, 3, 0, 7, 0.00,60.00,Thursday
165,0.0
166,0.0
463,26695006.50612984
512,0.0
561,26797398.68104075
562,0.0
2,3, 1, 3, 0, 8, 0.00,60.00,Thursday
265,22.199999999999996
266,22.199999999999996
2,3, 1, 3, 0, 8, 0.00,60.00,Thursday
165,0.0
166,0.0
463,22194786.463600215
512,0.0
561,22252484.406824145
562,0.0
2,3, 1, 3, 0, 9, 0.00,60.00,Thursday
265,22.199999999999996
266,22.2
2,3, 1, 3, 0, 9, 0.00,60.00,Thursday
165,2365200.0
166,2365200.0
463,16220452.05016239
512,0.0
561,16297741.364658639
562,0.0
2,3, 1, 3, 0,10, 0.00,60.00,Thursday
265,22.2
266,22.2
2,3, 1, 3, 0,10, 0.00,60.00,Thursday
165,2365200.0
166,2365200.0
463,12167970.441465914
512,0.0
561,12323892.631940207
562,0.0
2,3, 1, 3, 0,11, 0.00,60.00,Thursday
265,22.200000000000003
266,22.200000000000003
2,3, 1, 3, 0,11, 0.00,60.00,Thursday
165,2365200.0
166,2365200.0
463,5589332.984621444
512,0.0
561,6083067.134132059
562,0.0
2,3, 1, 3, 0,12, 0.00,60.00,Thursday
265,22.2
266,22.199999999999996
2,3, 1, 3, 0,12, 0.00,60.00,Thursday
165,1892160.0
166,1892160.0
463,7592598.708453224
512,0.0
561,7801370.818398081
562,0.0
2,3, 1, 3, 0,13, 0.00,60.00,Thursday
265,22.2
266,22.199999999999996
2,3, 1, 3, 0,13, 0.00,60.00,Thursday
165,946080.0
166,946080.0
463,8880839.657030918
512,0.0
561,9379494.97545729
562,0.0
2,3, 1, 3, 0,14, 0.00,60.00,Thursday
265,22.199999999999996
266,22.2
2,3, 1, 3, 0,14, 0.00,60.00,Thursday
165,1892160.0
166,1892160.0
463,6475861.698058875
512,0.0
561,7193176.780828324
562,0.0
2,3, 1, 3, 0,15, 0.00,60.00,Thursday
265,22.2
266,22.199999999999996
2,3, 1, 3, 0,15, 0.00,60.00,Thursday
165,2365200.0
166,2365200.0
463,7442653.403901463
512,0.0
561,7915017.955880641
562,0.0
2,3, 1, 3, 0,16, 0.00,60.00,Thursday
265,22.199999999999996
266,22.199999999999996
2,3, 1, 3, 0,16, 0.00,60.00,Thursday
165,2365200.0
166,2365200.0
463,9568333.187275603
512,0.0
561,9884631.548712613
562,0.0
2,3, 1, 3, 0,17, 0.00,60.00,Thursday
265,22.199999999999996
266,22.199999999999992
2,3, 1, 3, 0,17, 0.00,60.00,Thursday
165,2365200.0
166,2365200.0
463,11667921.529075062
512,0.0
561,11868544.892348668
562,0.0
2,3, 1, 3, 0,18, 0.00,60.00,Thursday
265,22.2
266,22.2
2,3, 1, 3, 0,18, 0.00,60.00,Thursday
165,2365200.0
166,2365200.0
463,12957587.85806425
512,0.0
561,13091528.173925305
562,0.0
2,3, 1, 3, 0,19, 0.00,60.00,Thursday
265,22.2
266,22.2
2,3, 1, 3, 0,19, 0.00,60.00,Thursday
165,1182600.0
166,1182600.0
463,16037179.042259913
512,0.0
561,16153924.962656578
562,0.0
2,3, 1, 3, 0,20, 0.00,60.00,Thursday
265,22.200000000000003
266,22.200000000000003
2,3, 1, 3, 0,20, 0.00,60.00,Thursday
165,0.0
166,0.0
463,18977613.216475587
512,0.0
561,19088229.740389127
562,0.0
2,3, 1, 3, 0,21, 0.00,60.00,Thursday
265,17.09426255863854
266,17.092407924167482
2,3, 1, 3, 0,21, 0.00,60.00,Thursday
165,0.0
166,0.0
463,4235259.429199922
512,0.0
561,4284251.164727515
562,0.0
2,3, 1, 3, 0,22, 0.00,60.00,Thursday
265,16.711476710093507
266,16.711561555646064
2,3, 1, 3, 0,22, 0.00,60.00,Thursday
165,0.0
166,0.0
463,7418768.614901423
512,0.0
561,7492071.097190492
562,0.0
2,3, 1, 3, 0,23, 0.00,60.00,Thursday
265,16.700174174071893
266,16.700177213319357
2,3, 1, 3, 0,23, 0.00,60.00,Thursday
165,0.0
166,0.0
463,10457767.350665223
512,0.0
561,10541400.745298255
562,0.0
2,3, 1, 3, 0,24, 0.00,60.00,Thursday
265,16.700018808768803
266,16.70001918939452
2,3, 1, 3, 0,24, 0.00,60.00,Thursday
165,0.0
166,0.0
463,12042733.317814099
512,0.0
561,12115438.02440923
562,0.0
2,4, 1, 4, 0, 1, 0.00,60.00,Friday
265,16.700002128417264
266,16.700002176557526
2,4, 1, 4, 0, 1, 0.00,60.00,Friday
165,0.0
166,0.0
463,12893445.88445144
512,0.0
561,12962376.86600547
562,0.0
2,4, 1, 4, 0, 2, 0.00,60.00,Friday
265,16.700000246118528
266,16.700000252248923
2,4, 1, 4, 0, 2, 0.00,60.00,Friday
165,0.0
166,0.0
463,13367599.199225422
512,0.0
561,13437965.056656135
562,0.0
2,4, 1, 4, 0, 3, 0.00,60.00,Friday
265,16.700000028692575
266,16.70000002946786
2,4, 1, 4, 0, 3, 0.00,60.00,Friday
165,0.0
166,0.0
463,13566713.973072546
512,0.0
561,13635285.214858964
562,0.0
2,4, 1, 4, 0, 4, 0.00,60.00,Friday
265,16.700000003411507
266,16.700000003510702
2,4, 1, 4, 0, 4, 0.00,60.00,Friday
165,0.0
166,0.0
463,13908854.037828663
512,0.0
561,13976183.318376198
562,0.0
2,4, 1, 4, 0, 5, 0.00,60.00,Friday
265,16.700000000424314
266,16.700000000437527
2,4, 1, 4, 0, 5, 0.00,60.00,Friday
165,0.0
166,0.0
463,14731031.823548373
512,0.0
561,14800640.910423102
562,0.0
2,4, 1, 4, 0, 6, 0.00,60.00,Friday
265,16.700000000054995
266,16.70000000005682
2,4, 1, 4, 0, 6, 0.00,60.00,Friday
165,0.0
166,0.0
463,15648170.596952302
512,0.0
561,15720563.89236743
562,0.0
2,4, 1, 4, 0, 7, 0.00,60.00,Friday
265,22.136540471340908
266,22.13647799461473
2,4, 1, 4, 0, 7, 0.00,60.00,Friday
165,0.0
166,0.0
463,31805549.04152671
512,0.0
561,31927687.872486025
562,0.0
2,4, 1, 4, 0, 8, 0.00,60.00,Friday
265,22.2
266,22.2
2,4, 1, 4, 0, 8, 0.00,60.00,Friday
165,0.0
166,0.0
463,25783988.84612742
512,0.0
561,25849451.603876453
562,0.0
2,4, 1, 4, 0, 9, 0.00,60.00,Friday
265,22.2
266,22.2
2,4, 1, 4, 0, 9, 0.00,60.00,Friday
165,2365200.0
166,2365200.0
463,19280304.329202477
512,0.0
561,19367974.31159466
562,0.0
2,4, 1, 4, 0,10, 0.00,60.00,Friday
265,22.2
266,22.200000000000003
2,4, 1, 4, 0,10, 0.00,60.00,Friday
165,2365200.0
166,2365200.0
463,15839639.498489158
512,0.0
561,15975421.389582463
562,0.0
2,4, 1, 4, 0,11, 0.00,60.00,Friday
265,22.199999999999996
266,22.2
2,4, 1, 4, 0,11, 0.00,60.00,Friday
165,2365200.0
166,2365200.0
463,12308473.093391271
512,0.0
561,12549335.689808667
562,0.0
2,4, 1, 4, 0,12, 0.00,60.00,Friday
265,22.2
266,22.200000000000006
2,4, 1, 4, 0,12, 0.00,60.00,Friday
165,1892160.0
166,1892160.0
463,10622165.17598149
512,0.0
561,10952239.38268067
562,0.0
2,4, 1, 4, 0,13, 0.00,60.00,Friday
265,22.2
266,22.2
2,4, 1, 4, 0,13, 0.00,60.00,Friday
165,946080.0
166,946080.0
463,10701131.159259137
512,0.0
561,11205212.2093621
562,0.0
2,4, 1, 4, 0,14, 0.00,60.00,Friday
265,22.2
266,22.2
2,4, 1, 4, 0,14, 0.00,60.00,Friday
165,1892160.0
166,1892160.0
463,9196867.664109718
512,0.0
561,9696378.568645313
562,0.0
2,4, 1, 4, 0,15, 0.00,60.00,Friday
265,22.199999999999996
266,22.2
2,4, 1, 4, 0,15, 0.00,60.00,Friday
165,2365200.0
166,2365200.0
463,8047594.390571673
512,0.0
561,8739241.277678842
562,0.0
2,4, 1, 4, 0,16, 0.00,60.00,Friday
265,22.2
266,22.2
2,4, 1, 4, 0,16, 0.00,60.00,Friday
165,2365200.0
166,2365200.0
463,9522252.850767057
512,0.0
561,10093361.648023732
562,0.0
2,4, 1, 4, 0,17, 0.00,60.00,Friday
265,22.2
266,22.199999999999996
2,4, 1, 4, 0,17, 0.00,60.00,Friday
165,2365200.0
166,2365200.0
463,12335090.705012532
512,0.0
561,12646898.615276042
562,0.0
2,4, 1, 4, 0,18, 0.00,60.00,Friday
265,22.200000000000003
266,22.199999999999996
2,4, 1, 4, 0,18, 0.00,60.00,Friday
165,2365200.0
166,2365200.0
463,14305539.830575751
512,0.0
561,14469888.446435697
562,0.0
2,4, 1, 4, 0,19, 0.00,60.00,Friday
265,22.2
266,22.200000000000003
2,4, 1, 4, 0,19, 0.00,60.00,Friday
165,1182600.0
166,1182600.0
463,18929981.77082743
512,0.0
561,19050257.712972358
562,0.0
2,4, 1, 4, 0,20, 0.00,60.00,Friday
265,22.199999999999996
266,22.200000000000003
2,4, 1, 4, 0,20, 0.00,60.00,Friday
165,0.0
166,0.0
463,23682219.8192222
512,0.0
561,23797570.08520816
562,0.0
2,4, 1, 4, 0,21, 0.00,60.00,Friday
265,16.988832009702914
266,16.987682709189805
2,4, 1, 4, 0,21, 0.00,60.00,Friday
165,0.0
166,0.0
463,8871605.501521429
512,0.0
561,8940357.728391007
562,0.0
2,4, 1, 4, 0,22, 0.00,60.00,Friday
265,16.7
266,16.700000000000003
2,4, 1, 4, 0,22, 0.00,60.00,Friday
165,0.0
166,0.0
463,14578638.196710274
512,0.0
561,14676762.01651254
562,0.0
2,4, 1, 4, 0,23, 0.00,60.00,Friday
265,16.7
266,16.700000000000003
2,4, 1, 4, 0,23, 0.00,60.00,Friday
165,0.0
166,0.0
463,16377493.935107669
512,0.0
561,16474314.699516622
562,0.0
2,4, 1, 4, 0,24, 0.00,60.00,Friday
265,16.700000000000003
266,16.7
2,4, 1, 4, 0,24, 0.00,60.00,Friday
165,0.0
166,0.0
463,18713496.04178851
512,0.0
561,18803120.632664256
562,0.0
2,5, 1, 5, 0, 1, 0.00,60.00,Saturday
265,16.7
266,16.700000000000003
2,5, 1, 5, 0, 1, 0.00,60.00,Saturday
165,709560.0
166,709560.0
463,19353725.94349321
512,0.0
561,19438840.403480045
562,0.0
2,5, 1, 5, 0, 2, 0.00,60.00,Saturday
265,16.699999999999996
266,16.7
2,5, 1, 5, 0, 2, 0.00,60.00,Saturday
165,709560.0
166,709560.0
463,19818298.60068648
512,0.0
561,19911451.960618857
562,0.0
2,5, 1, 5, 0, 3, 0.00,60.00,Saturday
265,16.7
266,16.7
2,5, 1, 5, 0, 3, 0.00,60.00,Saturday
165,709560.0
166,709560.0
463,20091467.583675317
512,0.0
561,20180022.127075125
562,0.0
2,5, 1, 5, 0, 4, 0.00,60.00,Saturday
265,16.7
266,16.7
2,5, 1, 5, 0, 4, 0.00,60.00,Saturday
165,709560.0
166,709560.0
463,21441159.89745106
512,0.0
561,21532358.41059486
562,0.0
2,5, 1, 5, 0, 5, 0.00,60.00,Saturday
265,16.7
266,16.700000000000003
2,5, 1, 5, 0, 5, 0.00,60.00,Saturday
165,709560.0
166,709560.0
463,22539586.05236205
512,0.0
561,22639694.008592024
562,0.0
2,5, 1, 5, 0, 6, 0.00,60.00,Saturday
265,16.7
266,16.700000000000003
2,5, 1, 5, 0, 6, 0.00,60.00,Saturday
165,709560.0
166,709560.0
463,23065483.11965122
512,0.0
561,23161889.43450519
562,0.0
2,5, 1, 5, 0, 7, 0.00,60.00,Saturday
265,16.7
266,16.7
2,5, 1, 5, 0, 7, 0.00,60.00,Saturday
165,709560.0
166,709560.0
463,21791493.342513375
512,0.0
561,21891517.763909742
562,0.0
2,5, 1, 5, 0, 8, 0.00,60.00,Saturday
265,16.700000000000003
266,16.699999999999996
2,5, 1, 5, 0, 8, 0.00,60.00,Saturday
165,709560.0
166,709560.0
463,21390365.352628674
512,0.0
561,21480727.368211392
562,0.0
2,5, 1, 5, 0, 9, 0.00,60.00,Saturday
265,16.7
266,16.699999999999996
2,5, 1, 5, 0, 9, 0.00,60.00,Saturday
165,709560.0
166,709560.0
463,18480831.87505936
512,0.0
561,17999976.144901995
562,0.0
2,5, 1, 5, 0,10, 0.00,60.00,Saturday
265,16.7
266,16.699999999999996
2,5, 1, 5, 0,10, 0.00,60.00,Saturday
165,709560.0
166,709560.0
463,10428136.337917497
512,0.0
561,9699833.147706833
562,0.0
2,5, 1, 5, 0,11, 0.00,60.00,Saturday
265,16.7
266,16.699999999999996
2,5, 1, 5, 0,11, 0.00,60.00,Saturday
165,709560.0
166,709560.0
463,10045627.766558044
512,0.0
561,9271129.921647986
562,0.0
2,5, 1, 5, 0,12, 0.00,60.00,Saturday
265,16.7
266,16.699999999999996
2,5, 1, 5, 0,12, 0.00,60.00,Saturday
165,709560.0
166,709560.0
463,9254435.955044618
512,0.0
561,9184485.706829842
562,0.0
2,5, 1, 5, 0,13, 0.00,60.00,Saturday
265,16.699999999999996
266,16.7
2,5, 1, 5, 0,13, 0.00,60.00,Saturday
165,709560.0
166,709560.0
463,9164286.771405138
512,0.0
561,9370375.931285527
562,0.0
2,5, 1, 5, 0,14, 0.00,60.00,Saturday
265,16.7
266,16.7
2,5, 1, 5, 0,14, 0.00,60.00,Saturday
165,709560.0
166,709560.0
463,551112.7204938114
512,0.0
561,2981067.822297857
562,0.0
2,5, 1, 5, 0,15, 0.00,60.00,Saturday
265,18.102043367068745
266,16.7
2,5, 1, 5, 0,15, 0.00,60.00,Saturday
165,709560.0
166,709560.0
463,0.0
512,0.0
561,384008.999510562
562,0.0
2,5, 1, 5, 0,16, 0.00,60.00,Saturday
265,18.06320284627375
266,16.7
2,5, 1, 5, 0,16, 0.00,60.00,Saturday
165,709560.0
166,709560.0
463,0.0
512,0.0
561,2054798.8086060449
562,0.0
2,5, 1, 5, 0,17, 0.00,60.00,Saturday
265,16.701741904077224
266,16.7
2,5, 1, 5, 0,17, 0.00,60.00,Saturday
165,709560.0
166,709560.0
463,5004002.014152488
512,0.0
561,8948831.581057644
562,0.0
2,5, 1, 5, 0,18, 0.00,60.00,Saturday
265,16.70000000138753
266,16.699999999999996
2,5, 1, 5, 0,18, 0.00,60.00,Saturday
165,709560.0
166,709560.0
463,13003981.840210784
512,0.0
561,14918651.856258443
562,0.0
2,5, 1, 5, 0,19, 0.00,60.00,Saturday
265,16.700000000191636
266,16.7
2,5, 1, 5, 0,19, 0.00,60.00,Saturday
165,709560.0
166,709560.0
463,17054315.907277808
512,0.0
561,18020794.848201036
562,0.0
2,5, 1, 5, 0,20, 0.00,60.00,Saturday
265,16.700000000028236
266,16.7
2,5, 1, 5, 0,20, 0.00,60.00,Saturday
165,709560.0
166,709560.0
463,19110401.354878377
512,0.0
561,19441873.494367238
562,0.0
2,5, 1, 5, 0,21, 0.00,60.00,Saturday
265,16.700000000004177
266,16.7
2,5, 1, 5, 0,21, 0.00,60.00,Saturday
165,709560.0
166,709560.0
463,19450436.723610837
512,0.0
561,19628484.673095986
562,0.0
2,5, 1, 5, 0,22, 0.00,60.00,Saturday
265,16.700000000000614
266,16.7
2,5, 1, 5, 0,22, 0.00,60.00,Saturday
165,709560.0
166,709560.0
463,19322174.426740028
512,0.0
561,19443433.73341971
562,0.0
2,5, 1, 5, 0,23, 0.00,60.00,Saturday
265,16.700000000000095
266,16.699999999999996
2,5, 1, 5, 0,23, 0.00,60.00,Saturday
165,709560.0
166,709560.0
463,20412926.33530696
512,0.0
561,20510020.01587717
562,0.0
2,5, 1, 5, 0,24, 0.00,60.00,Saturday
265,16.700000000000017
266,16.7
2,5, 1, 5, 0,24, 0.00,60.00,Saturday
165,709560.0
166,709560.0
463,22095084.96133313
512,0.0
561,22194083.69335558
562,0.0
2,6, 1, 6, 0, 1, 0.00,60.00,Sunday
265,16.7
266,16.700000000000003
2,6, 1, 6, 0, 1, 0.00,60.00,Sunday
165,709560.0
166,709560.0
463,24298865.913353767
512,0.0
561,24401378.322411858
562,0.0
2,6, 1, 6, 0, 2, 0.00,60.00,Sunday
265,16.7
266,16.700000000000003
2,6, 1, 6, 0, 2, 0.00,60.00,Sunday
165,709560.0
166,709560.0
463,25366929.702874593
512,0.0
561,25478203.313476887
562,0.0
2,6, 1, 6, 0, 3, 0.00,60.00,Sunday
265,16.7
266,16.700000000000003
2,6, 1, 6, 0, 3, 0.00,60.00,Sunday
165,709560.0
166,709560.0
463,25033234.47233728
512,0.0
561,25143504.99217446
562,0.0
2,6, 1, 6, 0, 4, 0.00,60.00,Sunday
265,16.7
266,16.7
2,6, 1, 6, 0, 4, 0.00,60.00,Sunday
165,709560.0
166,709560.0
463,24040260.660439994
512,0.0
561,24149834.4571112
562,0.0
2,6, 1, 6, 0, 5, 0.00,60.00,Sunday
265,16.699999999999996
266,16.699999999999996
2,6, 1, 6, 0, 5, 0.00,60.00,Sunday
165,709560.0
166,709560.0
463,23058034.83222835
512,0.0
561,23170247.581097614
562,0.0
2,6, 1, 6, 0, 6, 0.00,60.00,Sunday
265,16.7
266,16.699999999999996
2,6, 1, 6, 0, 6, 0.00,60.00,Sunday
165,709560.0
166,709560.0
463,23034623.076955784
512,0.0
561,23140006.766071595
562,0.0
2,6, 1, 6, 0, 7, 0.00,60.00,Sunday
265,16.7
266,16.699999999999996
2,6, 1, 6, 0, 7, 0.00,60.00,Sunday
165,709560.0
166,709560.0
463,24245996.147422273
512,0.0
561,24359304.81652856
562,0.0
2,6, 1, 6, 0, 8, 0.00,60.00,Sunday
265,16.700000000000003
266,16.7
2,6, 1, 6, 0, 8, 0.00,60.00,Sunday
165,709560.0
166,709560.0
463,25623178.686157543
512,0.0
561,25741934.33957171
562,0.0
2,6, 1, 6, 0, 9, 0.00,60.00,Sunday
265,16.7
266,16.699999999999996
2,6, 1, 6, 0, 9, 0.00,60.00,Sunday
165,709560.0
166,709560.0
463,23845339.403421722
512,0.0
561,23746607.7788713
562,0.0
2,6, 1, 6, 0,10, 0.00,60.00,Sunday
265,16.699999999999996
266,16.699999999999996
2,6, 1, 6, 0,10, 0.00,60.00,Sunday
165,709560.0
166,709560.0
463,16562720.784596981
512,0.0
561,16223187.254463987
562,0.0
2,6, 1, 6, 0,11, 0.00,60.00,Sunday
265,16.700000000000003
266,16.699999999999996
2,6, 1, 6, 0,11, 0.00,60.00,Sunday
165,709560.0
166,709560.0
463,10683554.551621871
512,0.0
561,10592343.40820394
562,0.0
2,6, 1, 6, 0,12, 0.00,60.00,Sunday
265,16.7
266,16.700000000000003
2,6, 1, 6, 0,12, 0.00,60.00,Sunday
165,709560.0
166,709560.0
463,5297675.54145416
512,0.0
561,6041806.005754056
562,0.0
2,6, 1, 6, 0,13, 0.00,60.00,Sunday
265,16.7
266,16.7
2,6, 1, 6, 0,13, 0.00,60.00,Sunday
165,709560.0
166,709560.0
463,2742677.5938369576
512,0.0
561,4274273.571498587
562,0.0
2,6, 1, 6, 0,14, 0.00,60.00,Sunday
265,16.7
266,16.699999999999996
2,6, 1, 6, 0,14, 0.00,60.00,Sunday
165,709560.0
166,709560.0
463,3780679.134308315
512,0.0
561,5463292.44715585
562,0.0
2,6, 1, 6, 0,15, 0.00,60.00,Sunday
265,16.7
266,16.7
2,6, 1, 6, 0,15, 0.00,60.00,Sunday
165,709560.0
166,709560.0
463,2096228.785768024
512,0.0
561,4927575.472675068
562,0.0
2,6, 1, 6, 0,16, 0.00,60.00,Sunday
265,16.699999999999996
266,16.7
2,6, 1, 6, 0,16, 0.00,60.00,Sunday
165,709560.0
166,709560.0
463,4370998.827031747
512,0.0
561,7458657.415868179
562,0.0
2,6, 1, 6, 0,17, 0.00,60.00,Sunday
265,16.700000000000003
266,16.7
2,6, 1, 6, 0,17, 0.00,60.00,Sunday
165,709560.0
166,709560.0
463,11193329.82109902
512,0.0
561,13395013.754962474
562,0.0
2,6, 1, 6, 0,18, 0.00,60.00,Sunday
265,16.7
266,16.7
2,6, 1, 6, 0,18, 0.00,60.00,Sunday
165,709560.0
166,709560.0
463,16339591.887478966
512,0.0
561,17102795.397860594
562,0.0
2,6, 1, 6, 0,19, 0.00,60.00,Sunday
265,16.7
266,16.699999999999996
2,6, 1, 6, 0,19, 0.00,60.00,Sunday
165,709560.0
166,709560.0
463,18034652.629693404
512,0.0
561,18361062.18380341
562,0.0
2,6, 1, 6, 0,20, 0.00,60.00,Sunday
265,16.700000000000003
266,16.7
2,6, 1, 6, 0,20, 0.00,60.00,Sunday
165,709560.0
166,709560.0
463,18480156.97174077
512,0.0
561,18659493.414618816
562,0.0
2,6, 1, 6, 0,21, 0.00,60.00,Sunday
265,16.700000000000006
266,16.7
2,6, 1, 6, 0,21, 0.00,60.00,Sunday
165,709560.0
166,709560.0
463,18540376.225905523
512,0.0
561,18657871.12541565
562,0.0
2,6, 1, 6, 0,22, 0.00,60.00,Sunday
265,16.7
266,16.7
2,6, 1, 6, 0,22, 0.00,60.00,Sunday
165,709560.0
166,709560.0
463,18819032.40805926
512,0.0
561,18913476.35527612
562,0.0
2,6, 1, 6, 0,23, 0.00,60.00,Sunday
265,16.700000000000003
266,16.700000000000003
2,6, 1, 6, 0,23, 0.00,60.00,Sunday
165,709560.0
166,709560.0
463,19366803.13546296
512,0.0
561,19458417.507383667
562,0.0
2,6, 1, 6, 0,24, 0.00,60.00,Sunday
265,16.700000000000003
266,16.7
2,6, 1, 6, 0,24, 0.00,60.00,Sunday
165,709560.0
166,709560.0
463,20371528.051168397
512,0.0
561,20465132.369664736
562,0.0
2,7, 1, 7, 0, 1, 0.00,60.00,Monday
265,16.700000000000003
266,16.7
2,7, 1, 7, 0, 1, 0.00,60.00,Monday
165,0.0
166,0.0
463,22876333.69058029
512,0.0
561,22969703.776676156
562,0.0
2,7, 1, 7, 0, 2, 0.00,60.00,Monday
265,16.7
266,16.7
2,7, 1, 7, 0, 2, 0.00,60.00,Monday
165,0.0
166,0.0
463,23758286.266601697
512,0.0
561,23854446.875387296
562,0.0
2,7, 1, 7, 0, 3, 0.00,60.00,Monday
265,16.7
266,16.7
2,7, 1, 7, 0, 3, 0.00,60.00,Monday
165,0.0
166,0.0
463,24095144.699862625
512,0.0
561,24188634.148450498
562,0.0
2,7, 1, 7, 0, 4, 0.00,60.00,Monday
265,16.7
266,16.700000000000003
2,7, 1, 7, 0, 4, 0.00,60.00,Monday
165,0.0
166,0.0
463,24222889.923050765
512,0.0
561,24327478.674417038
562,0.0
2,7, 1, 7, 0, 5, 0.00,60.00,Monday
265,16.700000000000003
266,16.700000000000003
2,7, 1, 7, 0, 5, 0.00,60.00,Monday
165,0.0
166,0.0
463,24520727.90560389
512,0.0
561,24618492.954375636
562,0.0
2,7, 1, 7, 0, 6, 0.00,60.00,Monday
265,16.700000000000003
266,16.7
2,7, 1, 7, 0, 6, 0.00,60.00,Monday
165,0.0
166,0.0
463,24776929.364347454