Program Version,EnergyPlus, Version 22.1.0-ed759b17ee, YMD=2023.01.12 15:26
1,5,Environment Title[],Latitude[deg],Longitude[deg],Time Zone[],Elevation[m]
2,8,Day of Simulation[],Month[],Day of Month[],DST Indicator[1=yes 0=no],Hour[],StartMinute[],EndMinute[],DayType
3,5,Cumulative Day of Simulation[],Month[],Day of Month[],DST Indicator[1=yes 0=no],DayType  ! When Daily Report Variables Requested
4,2,Cumulative Days of Simulation[],Month[]  ! When Monthly Report Variables Requested
5,1,Cumulative Days of Simulation[] ! When Run Period Report Variables Requested
6,1,Calendar Year of Simulation[] ! When Annual Report Variables Requested
165,1,1_RESIDENTIAL_4C5AC20F,Zone Lights Electricity Energy [J] !Hourly
166,1,2_RESIDENTIAL_AA024CF2,Zone Lights Electricity Energy [J] !Hourly
265,1,1_RESIDENTIAL_4C5AC20F,Zone Electric Equipment Electricity Energy [J] !Hourly
266,1,2_RESIDENTIAL_AA024CF2,Zone Electric Equipment Electricity Energy [J] !Hourly
660,1,1_RESIDENTIAL_4C5AC20F IDEAL LOADS AIR SYSTEM,Zone Ideal Loads Supply Air Total Heating Energy [J] !Hourly
709,1,1_RESIDENTIAL_4C5AC20F IDEAL LOADS AIR SYSTEM,Zone Ideal Loads Supply Air Total Cooling Energy [J] !Hourly
758,1,2_RESIDENTIAL_AA024CF2 IDEAL LOADS AIR SYSTEM,Zone Ideal Loads Supply Air Total Heating Energy [J] !Hourly
759,1,2_RESIDENTIAL_AA024CF2 IDEAL LOADS AIR SYSTEM,Zone Ideal Loads Supply Air Total Cooling Energy [J] !Hourly
858,1,2019::MIDRISEAPARTMENT::APARTMENT_SHW..1_RESIDENTIAL_4C5AC20F,Water Use Equipment Heating Energy [J] !Hourly
897,1,2019::MIDRISEAPARTMENT::APARTMENT_SHW..2_RESIDENTIAL_AA024CF2,Water Use Equipment Heating Energy [J] !Hourly
940,1,SHW PUMP1,Pump Electricity Energy [J] !Hourly
End of Data Dictionary
1,RUN PERIOD 1,  47.53,-122.30,  -8.00,   6.00
2,1, 1, 1, 0, 1, 0.00,60.00,Sunday
165,22027.221663245626
166,22027.221663245706
265,904654.2260254542
266,904654.2260254577
660,9431970.502213998
709,0.0
758,9448591.222389953
759,0.0
858,198135.47918836324
897,198135.47918836382
940,1064.177332552025
2,1, 1, 1, 0, 2, 0.00,60.00,Sunday
165,22027.221663245626
166,22027.221663245706
265,824240.5170454137
266,824240.517045417
660,9694035.109902967
709,0.0
758,9708344.885666797
759,0.0
858,99067.73959418162
897,99067.73959418191
940,1064.177332552025
2,1, 1, 1, 0, 3, 0.00,60.00,Sunday
165,22027.221663245626
166,22027.221663245706
265,784033.6625553935
266,784033.6625553967
660,9872151.204601489
709,0.0
758,9884605.98647127
759,0.0
858,24766.934898545405
897,24766.934898545478
940,1064.177332552025
2,1, 1, 1, 0, 4, 0.00,60.00,Sunday
165,22027.221663245626
166,22027.221663245706
265,763930.2353103834
266,763930.2353103865
660,10365766.668937035
709,0.0
758,10376954.399333736
759,0.0
858,24766.934898545405
897,24766.934898545478
940,1064.177332552025
2,1, 1, 1, 0, 5, 0.00,60.00,Sunday
165,66081.66304318672
166,66081.66304318699
265,763930.2353103834
266,763930.2353103865
660,10545524.020305688
709,0.0
758,10555648.385949848
759,0.0
858,99067.73959418162
897,99067.73959418191
940,1064.177332552025
2,1, 1, 1, 0, 6, 0.00,60.00,Sunday
165,143176.93789127134
166,143176.9378912719
265,864447.3715354339
266,864447.3715354373
660,10362903.34809149
709,0.0
758,10372182.873273516
759,0.0
858,668707.2422607259
897,668707.2422607279
940,1064.177332552025
2,1, 1, 1, 0, 7, 0.00,60.00,Sunday
165,154190.5477496191
166,154190.5477496197
265,1085585.071230545
266,1085585.0712305494
660,10211311.595201306
709,0.0
758,10220114.668162493
759,0.0
858,2328091.8804632677
897,2328091.880463274
940,1064.177332552025
2,1, 1, 1, 0, 8, 0.00,60.00,Sunday
165,143176.93789127134
166,143176.9378912719
265,1306722.770925656
266,1306722.7709256613
660,10021500.40164243
709,0.0
758,10029844.980771521
759,0.0
858,2476440.2041681954
897,2476440.204168203
940,1064.177332552025
2,1, 1, 1, 0, 9, 0.00,60.00,Sunday
165,66081.66304318672
166,66081.66304318699
265,1326826.1981706661
266,1326826.1981706715
660,10305381.800923062
709,0.0
758,10315132.650810791
759,0.0
858,2377625.750260359
897,2377625.7502603657
940,1064.177332552025
2,1, 1, 1, 0,10, 0.00,60.00,Sunday
165,44054.441379941105
166,44054.44137994128
265,1346929.6254156763
266,1346929.6254156814
660,10168592.912421321
709,0.0
758,10178005.702378001
759,0.0
858,2080422.531477814
897,2080422.5314778197
940,1064.177332552025
2,1, 1, 1, 0,11, 0.00,60.00,Sunday
165,44054.441379941105
166,44054.44137994128
265,1387136.4799056964
266,1387136.4799057017
660,9458324.210888073
709,0.0
758,9468217.501074994
759,0.0
858,1882287.05228945
897,1882287.0522894564
940,1064.177332552025
2,1, 1, 1, 0,12, 0.00,60.00,Sunday
165,44054.441379941105
166,44054.44137994128
265,1407239.9071507065
266,1407239.9071507119
660,8851676.446699765
709,0.0
758,8861390.484238394
759,0.0
858,1510783.0288112697
897,1510783.0288112739
940,1064.177332552025
2,1, 1, 1, 0,13, 0.00,60.00,Sunday
165,44054.441379941105
166,44054.44137994128
265,1387136.4799056964
266,1387136.4799057017
660,8435484.875285205
709,0.0
758,8442706.745517863
759,0.0
858,1312647.5496229064
897,1312647.5496229103
940,1064.177332552025
2,1, 1, 1, 0,14, 0.00,60.00,Sunday
165,44054.441379941105
166,44054.44137994128
265,1326826.1981706661
266,1326826.1981706715
660,7906992.456037639
709,0.0
758,7936221.05611944
759,0.0
858,1164045.9402316338
897,1164045.940231637
940,1064.177332552025
2,1, 1, 1, 0,15, 0.00,60.00,Sunday
165,44054.441379941105
166,44054.44137994128
265,1306722.770925656
266,1306722.7709256613
660,6767719.906327404
709,0.0
758,7002988.048395582
759,0.0
858,1015444.3308403614
897,1015444.3308403642
940,1064.177332552025
2,1, 1, 1, 0,16, 0.00,60.00,Sunday
165,77095.27484808462
166,77095.27484808491
265,1367033.0526606862
266,1367033.0526606918
660,6438315.346185106
709,0.0
758,6851615.128454017
759,0.0
858,1164045.9402316338
897,1164045.940231637
940,1064.177332552025
2,1, 1, 1, 0,17, 0.00,60.00,Sunday
165,154190.5477496191
166,154190.5477496197
265,1608274.1796008071
266,1608274.179600814
660,7246488.996910608
709,0.0
758,7479984.046735132
759,0.0
858,1362181.4194199971
897,1362181.4194200013
940,1064.177332552025
2,1, 1, 1, 0,18, 0.00,60.00,Sunday
165,220272.21079280582
166,220272.21079280667
265,2010342.7245010096
266,2010342.724501017
660,7526609.400892335
709,0.0
758,7648776.024299594
759,0.0
858,1807986.2475938143
897,1807986.2475938199
940,1064.177332552025
2,1, 1, 1, 0,19, 0.00,60.00,Sunday
165,297367.48564089043
166,297367.48564089154
265,2010342.7245010096
266,2010342.724501017
660,7343495.2389767645
709,0.0
758,7429647.066686498
759,0.0
858,2129956.4012749046
897,2129956.401274911
940,1064.177332552025
2,1, 1, 1, 0,20, 0.00,60.00,Sunday
165,352435.53882572945
166,352435.5388257308
265,1869618.7337859387
266,1869618.7337859457
660,7549019.179783522
709,0.0
758,7610995.907972099
759,0.0
858,2030888.6616807228
897,2030888.6616807284
940,1064.177332552025
2,1, 1, 1, 0,21, 0.00,60.00,Sunday
165,352435.53882572945
166,352435.5388257308
265,1789205.0248058983
266,1789205.0248059053
660,7843324.272681154
709,0.0
758,7887279.64404548
759,0.0
858,1857520.1173909055
897,1857520.1173909109
940,1064.177332552025
2,1, 1, 1, 0,22, 0.00,60.00,Sunday
165,242299.4324560515
166,242299.4324560524
265,1708791.3158258577
266,1708791.3158258644
660,7987737.125535543
709,0.0
758,8021028.306941388
759,0.0
858,1510783.0288112697
897,1510783.0288112739
940,1064.177332552025
2,1, 1, 1, 0,23, 0.00,60.00,Sunday
165,132163.32608637345
166,132163.32608637397
265,1427343.3343957164
266,1427343.334395722
660,8306412.010408679
709,0.0
758,8332293.915592024
759,0.0
858,1312647.5496229064
897,1312647.5496229103
940,1064.177332552025
2,1, 1, 1, 0,24, 0.00,60.00,Sunday
165,55068.053184838995
166,55068.053184839206
265,1165998.7802105853
266,1165998.7802105898
660,8674237.128862951
709,0.0
758,8695433.755784022
759,0.0
858,718241.1120578167
897,718241.1120578188
940,1064.177332552025
2,2, 1, 2, 0, 1, 0.00,60.00,Monday
165,22027.221663245626
166,22027.221663245706
265,904654.2260254542
266,904654.2260254577
660,9266985.55696565
709,0.0
758,9285295.799871273
759,0.0
858,198290.8521222404
897,198290.852122241
940,1064.177332552025
2,2, 1, 2, 0, 2, 0.00,60.00,Monday
165,22027.221663245626
166,22027.221663245706
265,824240.5170454137
266,824240.517045417
660,9857449.378681973
709,0.0
758,9873528.585256316
759,0.0
858,99145.4260611202
897,99145.4260611205
940,1064.177332552025
2,2, 1, 2, 0, 3, 0.00,60.00,Monday
165,22027.221663245626
166,22027.221663245706
265,784033.6625553935
266,784033.6625553967
660,9911900.620041477
709,0.0
758,9927558.335194763
759,0.0
858,24786.35651528005
897,24786.356515280124
940,1064.177332552025
2,2, 1, 2, 0, 4, 0.00,60.00,Monday
165,22027.221663245626
166,22027.221663245706
265,763930.2353103834
266,763930.2353103865
660,9770593.515101392
709,0.0
758,9785981.80472769
759,0.0
858,24786.35651528005
897,24786.356515280124
940,1064.177332552025
2,2, 1, 2, 0, 5, 0.00,60.00,Monday
165,66081.66304318672
166,66081.66304318699
265,763930.2353103834
266,763930.2353103865
660,9504520.834184142
709,0.0
758,9519124.27430091
759,0.0
858,99145.4260611202
897,99145.4260611205
940,1064.177332552025
2,2, 1, 2, 0, 6, 0.00,60.00,Monday
165,143176.93789127134
166,143176.9378912719
265,864447.3715354339
266,864447.3715354373
660,8897297.27893433
709,0.0
758,8909912.072627094
759,0.0
858,669231.6259125614
897,669231.6259125634
940,1064.177332552025
2,2, 1, 2, 0, 7, 0.00,60.00,Monday
165,154190.5477496191
166,154190.5477496197
265,1085585.071230545
266,1085585.0712305494
660,8022645.364762148
709,0.0
758,8035183.407257689
759,0.0
858,2329917.5124363247
897,2329917.5124363317
940,1064.177332552025
2,2, 1, 2, 0, 8, 0.00,60.00,Monday
165,143176.93789127134
166,143176.9378912719
265,1306722.770925656
266,1306722.7709256613
660,7636607.600321007
709,0.0
758,7647730.66999423
759,0.0
858,2478382.167221301
897,2478382.167221308
940,1064.177332552025
2,2, 1, 2, 0, 9, 0.00,60.00,Monday
165,66081.66304318672
166,66081.66304318699
265,1326826.1981706661
266,1326826.1981706715
660,7629536.003109221
709,0.0
758,7640304.073871952
759,0.0
858,2379490.225466885
897,2379490.225466892
940,1064.177332552025
2,2, 1, 2, 0,10, 0.00,60.00,Monday
165,44054.441379941105
166,44054.44137994128
265,1346929.6254156763
266,1346929.6254156814
660,7422275.59967857
709,0.0
758,7433320.87267386
759,0.0
858,2082053.9472835246
897,2082053.947283531
940,1064.177332552025
2,2, 1, 2, 0,11, 0.00,60.00,Monday
165,44054.441379941105
166,44054.44137994128
265,1387136.4799056964
266,1387136.4799057017
660,6989604.1544294935
709,0.0
758,7000252.155808117
759,0.0
858,1883763.0951612836
897,1883763.0951612887
940,1064.177332552025
2,2, 1, 2, 0,12, 0.00,60.00,Monday
165,44054.441379941105
166,44054.44137994128
265,1407239.9071507065
266,1407239.9071507119
660,6666961.82195612
709,0.0
758,6672295.344186345
759,0.0
858,1511967.7474320827
897,1511967.7474320878
940,1064.177332552025
2,2, 1, 2, 0,13, 0.00,60.00,Monday
165,44054.441379941105
166,44054.44137994128
265,1387136.4799056964
266,1387136.4799057017
660,4957691.070486007
709,0.0
758,4990587.956607638
759,0.0
858,1313676.895309843
897,1313676.8953098466
940,1064.177332552025
2,2, 1, 2, 0,14, 0.00,60.00,Monday
165,44054.441379941105
166,44054.44137994128
265,1326826.1981706661
266,1326826.1981706715
660,2528528.312855493
709,0.0
758,2889351.770818484
759,0.0
858,1164958.7562181624
897,1164958.7562181659
940,1064.177332552025
2,2, 1, 2, 0,15, 0.00,60.00,Monday
165,44054.441379941105
166,44054.44137994128
265,1306722.770925656
266,1306722.7709256613
660,2741911.228901902
709,0.0
758,3325525.725565962
759,0.0
858,1016240.6171264822
897,1016240.6171264846
940,1064.177332552025
2,2, 1, 2, 0,16, 0.00,60.00,Monday
165,77095.27484808462
166,77095.27484808491
265,1367033.0526606862
266,1367033.0526606918
660,4239671.150073994
709,0.0
758,4540477.733638818
759,0.0
858,1164958.7562181624
897,1164958.7562181659
940,1064.177332552025
2,2, 1, 2, 0,17, 0.00,60.00,Monday
165,154190.5477496191
166,154190.5477496197
265,1608274.1796008071
266,1608274.179600814
660,4849404.621836106
709,0.0
758,5061645.804535558
759,0.0
858,1363249.608340403
897,1363249.608340407
940,1064.177332552025
2,2, 1, 2, 0,18, 0.00,60.00,Monday
165,220272.21079280582
166,220272.21079280667
265,2010342.7245010096
266,2010342.724501017
660,4890562.186079194
709,0.0
758,5017848.781321377
759,0.0
858,1809404.0256154435
897,1809404.025615449
940,1064.177332552025
2,2, 1, 2, 0,19, 0.00,60.00,Monday
165,297367.48564089043
166,297367.48564089154
265,2010342.7245010096
266,2010342.724501017
660,5720373.522507131
709,0.0
758,5800446.873691921
759,0.0
858,2131626.6603140845
897,2131626.6603140915
940,1064.177332552025
2,2, 1, 2, 0,20, 0.00,60.00,Monday
165,352435.53882572945
166,352435.5388257308
265,1869618.7337859387
266,1869618.7337859457
660,6624913.182846995
709,0.0
758,6676528.003851132
759,0.0
858,2032481.2342529644
897,2032481.2342529693
940,1064.177332552025
2,2, 1, 2, 0,21, 0.00,60.00,Monday
165,352435.53882572945
166,352435.5388257308
265,1789205.0248058983
266,1789205.0248059053
660,6851677.898721726
709,0.0
758,6887185.780021683
759,0.0
858,1858976.7386460039
897,1858976.738646009
940,1064.177332552025
2,2, 1, 2, 0,22, 0.00,60.00,Monday
165,242299.4324560515
166,242299.4324560524
265,1708791.3158258577
266,1708791.3158258644
660,7012144.008941651
709,0.0
758,7039103.648455337
759,0.0
858,1511967.7474320827
897,1511967.7474320878
940,1064.177332552025
2,2, 1, 2, 0,23, 0.00,60.00,Monday
165,132163.32608637345
166,132163.32608637397
265,1427343.3343957164
266,1427343.334395722
660,7309958.440072299
709,0.0
758,7333216.456283214
759,0.0
858,1313676.895309843
897,1313676.8953098466
940,1064.177332552025
2,2, 1, 2, 0,24, 0.00,60.00,Monday
165,55068.053184838995
166,55068.053184839206
265,1165998.7802105853
266,1165998.7802105898
660,7670759.379866861
709,0.0
758,7691927.4537718175
759,0.0
858,718804.3389431215
897,718804.3389431235
940,1064.177332552025
2,3, 1, 3, 0, 1, 0.00,60.00,Tuesday
165,22027.221663245626
166,22027.221663245706
265,904654.2260254542
266,904654.2260254577
660,8277510.788337997
709,0.0
758,8296084.62045952
759,0.0
858,198442.83281535096
897,198442.8328153515
940,1064.177332552025
2,3, 1, 3, 0, 2, 0.00,60.00,Tuesday
165,22027.221663245626
166,22027.221663245706
265,824240.5170454137
266,824240.517045417
660,8831662.851275252
709,0.0
758,8848277.053108187
759,0.0
858,99221.41640767548
897,99221.41640767574
940,1064.177332552025
2,3, 1, 3, 0, 3, 0.00,60.00,Tuesday
165,22027.221663245626
166,22027.221663245706
265,784033.6625553935
266,784033.6625553967
660,9078641.571535215
709,0.0
758,9094966.90391801
759,0.0
858,24805.35410191887
897,24805.354101918936
940,1064.177332552025
2,3, 1, 3, 0, 4, 0.00,60.00,Tuesday
165,22027.221663245626
166,22027.221663245706
265,763930.2353103834
266,763930.2353103865
660,8921274.367146524
709,0.0
758,8937646.693701826
759,0.0
858,24805.35410191887
897,24805.354101918936
940,1064.177332552025
2,3, 1, 3, 0, 5, 0.00,60.00,Tuesday
165,66081.66304318672
166,66081.66304318699
265,763930.2353103834
266,763930.2353103865
660,8754054.929126313
709,0.0
758,8769392.387194239
759,0.0
858,99221.41640767548
897,99221.41640767574
940,1064.177332552025
2,3, 1, 3, 0, 6, 0.00,60.00,Tuesday
165,143176.93789127134
166,143176.9378912719
265,864447.3715354339
266,864447.3715354373
660,8782645.052235477
709,0.0
758,8796837.091301445
759,0.0
858,669744.5607518096
897,669744.5607518115
940,1064.177332552025
2,3, 1, 3, 0, 7, 0.00,60.00,Tuesday
165,154190.5477496191
166,154190.5477496197
265,1085585.071230545
266,1085585.0712305494
660,8876073.807332456
709,0.0
758,8890219.048220152
759,0.0
858,2331703.2855803734
897,2331703.2855803804
940,1064.177332552025
2,3, 1, 3, 0, 8, 0.00,60.00,Tuesday
165,143176.93789127134
166,143176.9378912719
265,1306722.770925656
266,1306722.7709256613
660,9319079.527208842
709,0.0
758,9333274.607055703
759,0.0
858,2480281.73160128
897,2480281.7316012867
940,1064.177332552025
2,3, 1, 3, 0, 9, 0.00,60.00,Tuesday
165,66081.66304318672
166,66081.66304318699
265,1326826.1981706661
266,1326826.1981706715
660,9728358.60144826
709,0.0
758,9742845.499376085
759,0.0
858,2381313.993784212
897,2381313.993784218
940,1064.177332552025
2,3, 1, 3, 0,10, 0.00,60.00,Tuesday
165,44054.441379941105
166,44054.44137994128
265,1346929.6254156763
266,1346929.6254156814
660,9342250.432109382
709,0.0
758,9350600.240697548
759,0.0
858,2083649.7445611851
897,2083649.7445611907
940,1064.177332552025
2,3, 1, 3, 0,11, 0.00,60.00,Tuesday
165,44054.441379941105
166,44054.44137994128
265,1387136.4799056964
266,1387136.4799057017
660,8719238.506681353
709,0.0
758,8710721.78197819
759,0.0
858,1885206.911745834
897,1885206.9117458393
940,1064.177332552025
2,3, 1, 3, 0,12, 0.00,60.00,Tuesday
165,44054.441379941105
166,44054.44137994128
265,1407239.9071507065
266,1407239.9071507119
660,8160957.607609322
709,0.0
758,8161711.361106473
759,0.0
858,1513126.6002170509
897,1513126.6002170555
940,1064.177332552025
2,3, 1, 3, 0,13, 0.00,60.00,Tuesday
165,44054.441379941105
166,44054.44137994128
265,1387136.4799056964
266,1387136.4799057017
660,8052123.9914847
709,0.0
758,8057880.341473045
759,0.0
858,1314683.7674017
897,1314683.7674017039
940,1064.177332552025
2,3, 1, 3, 0,14, 0.00,60.00,Tuesday
165,44054.441379941105
166,44054.44137994128
265,1326826.1981706661
266,1326826.1981706715
660,8160384.657962153
709,0.0
758,8186931.998711916
759,0.0
858,1165851.6427901867
897,1165851.6427901902
940,1064.177332552025
2,3, 1, 3, 0,15, 0.00,60.00,Tuesday
165,44054.441379941105
166,44054.44137994128
265,1306722.770925656
266,1306722.7709256613
660,7097295.676491358
709,0.0
758,7312684.653016344
759,0.0
858,1017019.5181786737
897,1017019.5181786766
940,1064.177332552025
2,3, 1, 3, 0,16, 0.00,60.00,Tuesday
165,77095.27484808462
166,77095.27484808491
265,1367033.0526606862
266,1367033.0526606918
660,7004649.746870199
709,0.0
758,7388270.66003588
759,0.0
858,1165851.6427901867
897,1165851.6427901902
940,1064.177332552025
2,3, 1, 3, 0,17, 0.00,60.00,Tuesday
165,154190.5477496191
166,154190.5477496197
265,1608274.1796008071
266,1608274.179600814
660,8413343.147306066
709,0.0
758,8652711.569848113
759,0.0
858,1364294.4756055376
897,1364294.4756055423
940,1064.177332552025
2,3, 1, 3, 0,18, 0.00,60.00,Tuesday
165,220272.21079280582
166,220272.21079280667
265,2010342.7245010096
266,2010342.724501017
660,9025737.549871821
709,0.0
758,9137747.055123169
759,0.0
858,1810790.8494400778
897,1810790.8494400827
940,1064.177332552025
2,3, 1, 3, 0,19, 0.00,60.00,Tuesday
165,297367.48564089043
166,297367.48564089154
265,2010342.7245010096
266,2010342.724501017
660,9094784.564517055
709,0.0
758,9167409.320223933
759,0.0
858,2133260.452765023
897,2133260.4527650294
940,1064.177332552025
2,3, 1, 3, 0,20, 0.00,60.00,Tuesday
165,352435.53882572945
166,352435.5388257308
265,1869618.7337859387
266,1869618.7337859457
660,9262230.460064447
709,0.0
758,9311559.961597154
759,0.0
858,2034039.0363573474
897,2034039.0363573532
940,1064.177332552025
2,3, 1, 3, 0,21, 0.00,60.00,Tuesday
165,352435.53882572945
166,352435.5388257308
265,1789205.0248058983
266,1789205.0248059053
660,9622563.349825617
709,0.0
758,9658256.350534253
759,0.0
858,1860401.5576439158
897,1860401.5576439206
940,1064.177332552025
2,3, 1, 3, 0,22, 0.00,60.00,Tuesday
165,242299.4324560515
166,242299.4324560524
265,1708791.3158258577
266,1708791.3158258644
660,9953258.430433128
709,0.0
758,9980538.191968417
759,0.0
858,1513126.6002170509
897,1513126.6002170555
940,1064.177332552025
2,3, 1, 3, 0,23, 0.00,60.00,Tuesday
165,132163.32608637345
166,132163.32608637397
265,1427343.3343957164
266,1427343.334395722
660,10532510.865785347
709,0.0
758,10554711.876254648
759,0.0
858,1314683.7674017
897,1314683.7674017039
940,1064.177332552025
2,3, 1, 3, 0,24, 0.00,60.00,Tuesday
165,55068.053184838995
166,55068.053184839206
265,1165998.7802105853
266,1165998.7802105898
660,11058840.987852942
709,0.0
758,11078137.906208301
759,0.0
858,719355.2689556471
897,719355.2689556493
940,1064.177332552025
2,4, 1, 4, 0, 1, 0.00,60.00,Wednesday
165,22027.221663245626
166,22027.221663245706
265,904654.2260254542
266,904654.2260254577
660,11375162.5423899
709,0.0
758,11393080.850023722
759,0.0
858,198591.37626005214
897,198591.3762600527
940,1064.177332552025
2,4, 1, 4, 0, 2, 0.00,60.00,Wednesday
165,22027.221663245626
166,22027.221663245706
265,824240.5170454137
266,824240.517045417
660,11510390.104056582
709,0.0
758,11527484.861255975
759,0.0
858,99295.68813002607
897,99295.68813002635
940,1064.177332552025
2,4, 1, 4, 0, 3, 0.00,60.00,Wednesday
165,22027.221663245626
166,22027.221663245706
265,784033.6625553935
266,784033.6625553967
660,11822144.802775413
709,0.0
758,11839453.119269121
759,0.0
858,24823.922032506518
897,24823.922032506587
940,1064.177332552025
2,4, 1, 4, 0, 4, 0.00,60.00,Wednesday
165,22027.221663245626
166,22027.221663245706
265,763930.2353103834
266,763930.2353103865
660,11825266.603317434
709,0.0
758,11841738.691703891
759,0.0
858,24823.922032506518
897,24823.922032506587
940,1064.177332552025
2,4, 1, 4, 0, 5, 0.00,60.00,Wednesday
165,66081.66304318672
166,66081.66304318699
265,763930.2353103834
266,763930.2353103865
660,11881907.187221548
709,0.0
758,11897659.290879808
759,0.0
858,99295.68813002607
897,99295.68813002635
940,1064.177332552025
2,4, 1, 4, 0, 6, 0.00,60.00,Wednesday
165,143176.93789127134
166,143176.9378912719
265,864447.3715354339
266,864447.3715354373
660,12148343.521028727
709,0.0
758,12163880.021388318
759,0.0
858,670245.894877676
897,670245.8948776779
940,1064.177332552025
2,4, 1, 4, 0, 7, 0.00,60.00,Wednesday
165,154190.5477496191
166,154190.5477496197
265,1085585.071230545
266,1085585.0712305494
660,11955830.775724087
709,0.0
758,11968949.562251264
759,0.0
858,2333448.6710556126
897,2333448.671055619
940,1064.177332552025
2,4, 1, 4, 0, 8, 0.00,60.00,Wednesday
165,143176.93789127134
166,143176.9378912719
265,1306722.770925656
266,1306722.7709256613
660,11812498.734904448
709,0.0
758,11825031.235484095
759,0.0
858,2482138.334770134
897,2482138.3347701416
940,1064.177332552025
2,4, 1, 4, 0, 9, 0.00,60.00,Wednesday
165,66081.66304318672
166,66081.66304318699
265,1326826.1981706661
266,1326826.1981706715
660,12076344.898033489
709,0.0
758,12087534.706403919
759,0.0
858,2383096.515120626
897,2383096.5151206325
940,1064.177332552025
2,4, 1, 4, 0,10, 0.00,60.00,Wednesday
165,44054.441379941105
166,44054.44137994128
265,1346929.6254156763
266,1346929.6254156814
660,12197137.76714342
709,0.0
758,12209057.180137891
759,0.0
858,2085209.4507305468
897,2085209.4507305534
940,1064.177332552025
2,4, 1, 4, 0,11, 0.00,60.00,Wednesday
165,44054.441379941105
166,44054.44137994128
265,1387136.4799056964
266,1387136.4799057017
660,11903973.380988955
709,0.0
758,11916529.532688044
759,0.0
858,1886618.074470495
897,1886618.0744705005
940,1064.177332552025
2,4, 1, 4, 0,12, 0.00,60.00,Wednesday
165,44054.441379941105
166,44054.44137994128
265,1407239.9071507065
266,1407239.9071507119
660,11541731.823318467
709,0.0
758,11552668.96330327
759,0.0
858,1514259.2439828974
897,1514259.2439829018
940,1064.177332552025
2,4, 1, 4, 0,13, 0.00,60.00,Wednesday
165,44054.441379941105
166,44054.44137994128
265,1387136.4799056964
266,1387136.4799057017
660,10820384.389890086
709,0.0
758,10834389.38714657
759,0.0
858,1315667.8677228456
897,1315667.8677228494
940,1064.177332552025
2,4, 1, 4, 0,14, 0.00,60.00,Wednesday
165,44054.441379941105
166,44054.44137994128
265,1326826.1981706661
266,1326826.1981706715
660,9636008.563804612
709,0.0
758,9710860.631383603
759,0.0
858,1166724.3355278063
897,1166724.3355278096
940,1064.177332552025
2,4, 1, 4, 0,15, 0.00,60.00,Wednesday
165,44054.441379941105
166,44054.44137994128
265,1306722.770925656
266,1306722.7709256613
660,8748675.58382885
709,0.0
758,9043057.731230337
759,0.0
858,1017780.8033327673
897,1017780.8033327701
940,1064.177332552025
2,4, 1, 4, 0,16, 0.00,60.00,Wednesday
165,77095.27484808462
166,77095.27484808491
265,1367033.0526606862
266,1367033.0526606918
660,8804971.455080628
709,0.0
758,9234930.97813111
759,0.0
858,1166724.3355278063
897,1166724.3355278096
940,1064.177332552025
2,4, 1, 4, 0,17, 0.00,60.00,Wednesday
165,154190.5477496191
166,154190.5477496197
265,1608274.1796008071
266,1608274.179600814
660,10645263.632428296
709,0.0
758,10880049.009912405
759,0.0
858,1365315.7117878585
897,1365315.7117878622
940,1064.177332552025
2,4, 1, 4, 0,18, 0.00,60.00,Wednesday
165,220272.21079280582
166,220272.21079280667
265,2010342.7245010096
266,2010342.724501017
660,11754675.379635656
709,0.0
758,11876134.322491346
759,0.0
858,1812146.308372975
897,1812146.3083729814
940,1064.177332552025
2,4, 1, 4, 0,19, 0.00,60.00,Wednesday
165,297367.48564089043
166,297367.48564089154
265,2010342.7245010096
266,2010342.724501017
660,12355337.189339858
709,0.0
758,12437388.081920836
759,0.0
858,2134857.29479556
897,2134857.2947955667
940,1064.177332552025
2,4, 1, 4, 0,20, 0.00,60.00,Wednesday
165,352435.53882572945
166,352435.5388257308
265,1869618.7337859387
266,1869618.7337859457
660,12693119.29794651
709,0.0
758,12748356.110849563
759,0.0
858,2035561.6066655347
897,2035561.6066655403
940,1064.177332552025
2,4, 1, 4, 0,21, 0.00,60.00,Wednesday
165,352435.53882572945
166,352435.5388257308
265,1789205.0248058983
266,1789205.0248059053
660,12677653.984584456
709,0.0
758,12715851.282575736
759,0.0
858,1861794.152437989
897,1861794.1524379938
940,1064.177332552025
2,4, 1, 4, 0,22, 0.00,60.00,Wednesday
165,242299.4324560515
166,242299.4324560524
265,1708791.3158258577
266,1708791.3158258644
660,13073364.984871348
709,0.0
758,13101924.618613541
759,0.0
858,1514259.2439828974
897,1514259.2439829018
940,1064.177332552025
2,4, 1, 4, 0,23, 0.00,60.00,Wednesday
165,132163.32608637345
166,132163.32608637397
265,1427343.3343957164
266,1427343.334395722
660,13330219.419006376
709,0.0
758,13351344.913822472
759,0.0
858,1315667.8677228456
897,1315667.8677228494
940,1064.177332552025
2,4, 1, 4, 0,24, 0.00,60.00,Wednesday
165,55068.053184838995
166,55068.053184839206
265,1165998.7802105853
266,1165998.7802105898
660,13735139.419111414
709,0.0
758,13753556.00694577
759,0.0
858,719893.7389426889
897,719893.738942691
940,1064.177332552025
2,5, 1, 5, 0, 1, 0.00,60.00,Thursday
165,22027.221663245626
166,22027.221663245706
265,904654.2260254542
266,904654.2260254577
660,14316262.694241721
709,0.0
758,14332920.304493561
759,0.0
858,198736.43846660966
897,198736.43846661024
940,1064.177332552025
2,5, 1, 5, 0, 2, 0.00,60.00,Thursday
165,22027.221663245626
166,22027.221663245706
265,824240.5170454137
266,824240.517045417
660,14484548.356434839
709,0.0
758,14505400.772584308
759,0.0
858,99368.21923330483
897,99368.21923330512
940,1064.177332552025
2,5, 1, 5, 0, 3, 0.00,60.00,Thursday
165,22027.221663245626
166,22027.221663245706
265,784033.6625553935
266,784033.6625553967
660,14560594.736558229
709,0.0
758,14580821.947881136
759,0.0
858,24842.054808326207
897,24842.05480832628
940,1064.177332552025
2,5, 1, 5, 0, 4, 0.00,60.00,Thursday
165,22027.221663245626
166,22027.221663245706
265,763930.2353103834
266,763930.2353103865
660,14594648.70146203
709,0.0
758,14608995.553243564
759,0.0
858,24842.054808326207
897,24842.05480832628
940,1064.177332552025
2,5, 1, 5, 0, 5, 0.00,60.00,Thursday
165,66081.66304318672
166,66081.66304318699
265,763930.2353103834
266,763930.2353103865
660,14569318.165887643
709,0.0
758,14580276.494683677
759,0.0
858,99368.21923330483
897,99368.21923330512
940,1064.177332552025
2,5, 1, 5, 0, 6, 0.00,60.00,Thursday
165,143176.93789127134
166,143176.9378912719
265,864447.3715354339
266,864447.3715354373
660,14347976.420676764
709,0.0
758,14358419.414663319
759,0.0
858,670735.4798248078
897,670735.4798248096
940,1064.177332552025
2,5, 1, 5, 0, 7, 0.00,60.00,Thursday
165,154190.5477496191
166,154190.5477496197
265,1085585.071230545
266,1085585.0712305494
660,13925507.782220336
709,0.0
758,13938636.884295456
759,0.0
858,2335153.151982664
897,2335153.15198267
940,1064.177332552025
2,5, 1, 5, 0, 8, 0.00,60.00,Thursday
165,143176.93789127134
166,143176.9378912719
265,1306722.770925656
266,1306722.7709256613
660,13819398.233094588
709,0.0
758,13832334.682651984
759,0.0
858,2483951.4269124195
897,2483951.426912427
940,1064.177332552025
2,5, 1, 5, 0, 9, 0.00,60.00,Thursday
165,66081.66304318672
166,66081.66304318699
265,1326826.1981706661
266,1326826.1981706715
660,14067846.118453858
709,0.0
758,14080325.001244418
759,0.0
858,2384837.2615993163
897,2384837.261599323
940,1064.177332552025
2,5, 1, 5, 0,10, 0.00,60.00,Thursday
165,44054.441379941105
166,44054.44137994128
265,1346929.6254156763
266,1346929.6254156814
660,13787956.000985706
709,0.0
758,13799466.055156944
759,0.0
858,2086732.603899401
897,2086732.6038994077
940,1064.177332552025
2,5, 1, 5, 0,11, 0.00,60.00,Thursday