Program Version,EnergyPlus, Version 22.2.0-c249759bad, YMD=2023.02.06 14:36
1,5,Environment Title[],Latitude[deg],Longitude[deg],Time Zone[],Elevation[m]
2,8,Day of Simulation[],Month[],Day of Month[],DST Indicator[1=yes 0=no],Hour[],StartMinute[],EndMinute[],DayType
3,5,Cumulative Day of Simulation[],Month[],Day of Month[],DST Indicator[1=yes 0=no],DayType  ! When Daily Report Variables Requested
4,2,Cumulative Days of Simulation[],Month[]  ! When Monthly Report Variables Requested
5,1,Cumulative Days of Simulation[] ! When Run Period Report Variables Requested
6,1,Calendar Year of Simulation[] ! When Annual Report Variables Requested
165,1,1_RESIDENTIAL_4C5AC20F,Zone Lights Electricity Energy [kWh] !Hourly
166,1,2_RESIDENTIAL_AA024CF2,Zone Lights Electricity Energy [kWh] !Hourly
265,1,1_RESIDENTIAL_4C5AC20F,Zone Electric Equipment Electricity Energy [kWh] !Hourly
266,1,2_RESIDENTIAL_AA024CF2,Zone Electric Equipment Electricity Energy [kWh] !Hourly
660,1,1_RESIDENTIAL_4C5AC20F IDEAL LOADS AIR SYSTEM,Zone Ideal Loads Supply Air Total Heating Energy [kBtu] !Hourly
709,1,1_RESIDENTIAL_4C5AC20F IDEAL LOADS AIR SYSTEM,Zone Ideal Loads Supply Air Total Cooling Energy [ton-hr] !Hourly
758,1,2_RESIDENTIAL_AA024CF2 IDEAL LOADS AIR SYSTEM,Zone Ideal Loads Supply Air Total Heating Energy [kBtu] !Hourly
759,1,2_RESIDENTIAL_AA024CF2 IDEAL LOADS AIR SYSTEM,Zone Ideal Loads Supply Air Total Cooling Energy [ton-hr] !Hourly
858,1,2019::MIDRISEAPARTMENT::APARTMENT_SHW..1_RESIDENTIAL_4C5AC20F,Water Use Equipment Heating Energy [kBtu] !Hourly
897,1,2019::MIDRISEAPARTMENT::APARTMENT_SHW..2_RESIDENTIAL_AA024CF2,Water Use Equipment Heating Energy [kBtu] !Hourly
940,1,SHW PUMP1,Pump Electricity Energy [kWh] !Hourly
End of Data Dictionary
1,RUN PERIOD 1,  47.47,-122.32,  -8.00, 122.00
2,1, 1, 1, 0, 1, 0.00,60.00,Sunday
165,6.1186775791730432E-003
166,6.1186775791730657E-003
265,0.25129304159689864
266,0.25129304159689958
660,12.058862097288213
709,0.0000000000000000
758,12.059724099186505
759,0.0000000000000000
858,0.19047950954906367
897,0.19047950954906423
940,2.9560505108163642E-004
2,1, 1, 1, 0, 2, 0.00,60.00,Sunday
165,6.1186775791730432E-003
166,6.1186775791730657E-003
265,0.22895588234384093
266,0.22895588234384182
660,12.491806239108046
709,0.0000000000000000
758,12.492730203441891
759,0.0000000000000000
858,9.5239808717710803E-002
897,9.5239808717711066E-002
940,2.9560505108163642E-004
2,1, 1, 1, 0, 3, 0.00,60.00,Sunday
165,6.1186775791730432E-003
166,6.1186775791730657E-003
265,0.21778730271731209
266,0.21778730271731297
660,12.563311451544873
709,0.0000000000000000
758,12.564296289598641
759,0.0000000000000000
858,2.3809952179427701E-002
897,2.3809952179427767E-002
940,2.9560505108163642E-004
2,1, 1, 1, 0, 4, 0.00,60.00,Sunday
165,6.1186775791730432E-003
166,6.1186775791730657E-003
265,0.21220301290404767
266,0.21220301290404853
660,12.367502785759619
709,0.0000000000000000
758,12.368093438636349
759,0.0000000000000000
858,2.3809952179427701E-002
897,2.3809952179427767E-002
940,2.9560505108163642E-004
2,1, 1, 1, 0, 5, 0.00,60.00,Sunday
165,1.8356032196810319E-002
166,1.8356032196810392E-002
265,0.21220301290404767
266,0.21220301290404853
660,11.956121756548155
709,0.0000000000000000
758,11.957058971185603
759,0.0000000000000000
858,9.5239808717710803E-002
897,9.5239808717711066E-002
940,2.9560505108163642E-004
2,1, 1, 1, 0, 6, 0.00,60.00,Sunday
165,3.9771403453561567E-002
166,3.9771403453561720E-002
265,0.24012446197036974
266,0.24012446197037068
660,10.983512330159448
709,0.0000000000000000
758,10.983848813550580
759,0.0000000000000000
858,0.64286870884454794
897,0.64286870884454994
940,2.9560505108163642E-004
2,1, 1, 1, 0, 7, 0.00,60.00,Sunday
165,4.2830741972793691E-002
166,4.2830741972793858E-002
265,0.30155164991627831
266,0.30155164991627953
660,10.462520639559033
709,0.0000000000000000
758,10.463033974349006
759,0.0000000000000000
858,2.2381355048662042
897,2.2381355048662108
940,2.9560505108163642E-004
2,1, 1, 1, 0, 8, 0.00,60.00,Sunday
165,3.9771403453561567E-002
166,3.9771403453561720E-002
265,0.36297883786218682
266,0.36297883786218832
660,10.627659761884356
709,0.0000000000000000
758,10.628361153907129
759,0.0000000000000000
858,2.3807517190962519
897,2.3807517190962582
940,2.9560505108163642E-004
2,1, 1, 1, 0, 9, 0.00,60.00,Sunday
165,1.8356032196810319E-002
166,1.8356032196810392E-002
265,0.36856312767545130
266,0.36856312767545274
660,10.308914246731222
709,0.0000000000000000
758,10.297324119828168
759,0.0000000000000000
858,2.2857554092250596
897,2.2857554092250658
940,2.9560505108163642E-004
2,1, 1, 1, 0,10, 0.00,60.00,Sunday
165,1.2237354617637280E-002
166,1.2237354617637329E-002
265,0.37414741748871572
266,0.37414741748871710
660,9.4441220167373867
709,0.0000000000000000
758,9.4064509467139619
759,0.0000000000000000
858,2.0000359830719265
897,2.0000359830719323
940,2.9560505108163642E-004
2,1, 1, 1, 0,11, 0.00,60.00,Sunday
165,1.2237354617637280E-002
166,1.2237354617637329E-002
265,0.38531599711524450
266,0.38531599711524600
660,8.3435281068282645
709,0.0000000000000000
758,8.3027594368157338
759,0.0000000000000000
858,1.8095563656365052
897,1.8095563656365103
940,2.9560505108163642E-004
2,1, 1, 1, 0,12, 0.00,60.00,Sunday
165,1.2237354617637280E-002
166,1.2237354617637329E-002
265,0.39090028692850892
266,0.39090028692851042
660,7.9181728176794017
709,0.0000000000000000
758,7.8995782427457737
759,0.0000000000000000
858,1.4524070829450897
897,1.4524070829450939
940,2.9560505108163642E-004
2,1, 1, 1, 0,13, 0.00,60.00,Sunday
165,1.2237354617637280E-002
166,1.2237354617637329E-002
265,0.38531599711524450
266,0.38531599711524600
660,8.9822043514057004
709,0.0000000000000000
758,8.9758523517193289
759,0.0000000000000000
858,1.2619274655096682
897,1.2619274655096719
940,2.9560505108163642E-004
2,1, 1, 1, 0,14, 0.00,60.00,Sunday
165,1.2237354617637280E-002
166,1.2237354617637329E-002
265,0.36856312767545130
266,0.36856312767545274
660,9.4957789969244573
709,0.0000000000000000
758,9.5140458258214693
759,0.0000000000000000
858,1.1190677524331021
897,1.1190677524331054
940,2.9560505108163642E-004
2,1, 1, 1, 0,15, 0.00,60.00,Sunday
165,1.2237354617637280E-002
166,1.2237354617637329E-002
265,0.36297883786218682
266,0.36297883786218832
660,9.6190980209647563
709,0.0000000000000000
758,9.6517746287634854
759,0.0000000000000000
858,0.97620803935653566
897,0.97620803935653844
940,2.9560505108163642E-004
2,1, 1, 1, 0,16, 0.00,60.00,Sunday
165,2.1415371256751248E-002
166,2.1415371256751331E-002
265,0.37973170730198008
266,0.37973170730198164
660,10.294749060516500
709,0.0000000000000000
758,10.326138028364459
759,0.0000000000000000
858,1.1190677524331021
897,1.1190677524331054
940,2.9560505108163642E-004
2,1, 1, 1, 0,17, 0.00,60.00,Sunday
165,4.2830741972793691E-002
166,4.2830741972793858E-002
265,0.44674318506115296
266,0.44674318506115485
660,10.800521660632853
709,0.0000000000000000
758,10.818598121877145
759,0.0000000000000000
858,1.3095473698685234
897,1.3095473698685274
940,2.9560505108163642E-004
2,1, 1, 1, 0,18, 0.00,60.00,Sunday
165,6.1186774169604011E-002
166,6.1186774169604247E-002
265,0.55842898132644136
266,0.55842898132644347
660,10.582321740073009
709,0.0000000000000000
758,10.592471953195274
759,0.0000000000000000
858,1.7381265090982219
897,1.7381265090982270
940,2.9560505108163642E-004
2,1, 1, 1, 0,19, 0.00,60.00,Sunday
165,8.2602145426355258E-002
166,8.2602145426355564E-002
265,0.55842898132644136
266,0.55842898132644347
660,10.379820822060941
709,0.0000000000000000
758,10.386516058600670
759,0.0000000000000000
858,2.0476558874307820
897,2.0476558874307886
940,2.9560505108163642E-004
2,1, 1, 1, 0,20, 0.00,60.00,Sunday
165,9.7898839103933474E-002
166,9.7898839103933849E-002
265,0.51933895263359042
266,0.51933895263359242
660,10.513552702510397
709,0.0000000000000000
758,10.516738521357993
759,0.0000000000000000
858,1.9524160787130713
897,1.9524160787130769
940,2.9560505108163642E-004
2,1, 1, 1, 0,21, 0.00,60.00,Sunday
165,9.7898839103933474E-002
166,9.7898839103933849E-002
265,0.49700179338053280
266,0.49700179338053474
660,10.887489479159509
709,0.0000000000000000
758,10.888991956429901
759,0.0000000000000000
858,1.7857464134570780
897,1.7857464134570831
940,2.9560505108163642E-004
2,1, 1, 1, 0,22, 0.00,60.00,Sunday
165,6.7305451748777070E-002
166,6.7305451748777320E-002
265,0.47466463412747506
266,0.47466463412747695
660,11.015531493252938
709,0.0000000000000000
758,11.015276875556955
759,0.0000000000000000
858,1.4524070829450897
897,1.4524070829450939
940,2.9560505108163642E-004
2,1, 1, 1, 0,23, 0.00,60.00,Sunday
165,3.6712064393620639E-002
166,3.6712064393620784E-002
265,0.39648457674177329
266,0.39648457674177484
660,11.156160193049912
709,0.0000000000000000
758,11.155162699857639
759,0.0000000000000000
858,1.2619274655096682
897,1.2619274655096719
940,2.9560505108163642E-004
2,1, 1, 1, 0,24, 0.00,60.00,Sunday
165,1.5296693677578205E-002
166,1.5296693677578264E-002
265,0.32388880916933593
266,0.32388880916933721
660,11.456958532718772
709,0.0000000000000000
758,11.455552597964083
759,0.0000000000000000
858,0.69048861320340316
897,0.69048861320340527
940,2.9560505108163642E-004
2,2, 1, 2, 0, 1, 0.00,60.00,Monday
165,6.1186775791730432E-003
166,6.1186775791730657E-003
265,0.25129304159689864
266,0.25129304159689958
660,11.504249147067393
709,0.0000000000000000
758,11.502295006280063
759,0.0000000000000000
858,0.19062990086726939
897,0.19062990086726994
940,2.9560505108163642E-004
2,2, 1, 2, 0, 2, 0.00,60.00,Monday
165,6.1186775791730432E-003
166,6.1186775791730657E-003
265,0.22895588234384093
266,0.22895588234384182
660,11.655303647370108
709,0.0000000000000000
758,11.653863198362210
759,0.0000000000000000
858,9.5314950433634693E-002
897,9.5314950433634971E-002
940,2.9560505108163642E-004
2,2, 1, 2, 0, 3, 0.00,60.00,Monday
165,6.1186775791730432E-003
166,6.1186775791730657E-003
265,0.21778730271731209
266,0.21778730271731297
660,11.888622187714644
709,0.0000000000000000
758,11.887584422778467
759,0.0000000000000000
858,2.3828737608408673E-002
897,2.3828737608408743E-002
940,2.9560505108163642E-004
2,2, 1, 2, 0, 4, 0.00,60.00,Monday
165,6.1186775791730432E-003
166,6.1186775791730657E-003
265,0.21220301290404767
266,0.21220301290404853
660,11.686220287812541
709,0.0000000000000000
758,11.684856247673299
759,0.0000000000000000
858,2.3828737608408673E-002
897,2.3828737608408743E-002
940,2.9560505108163642E-004
2,2, 1, 2, 0, 5, 0.00,60.00,Monday
165,1.8356032196810319E-002
166,1.8356032196810392E-002
265,0.21220301290404767
266,0.21220301290404853
660,11.693696487077686
709,0.0000000000000000
758,11.693105675748500
759,0.0000000000000000
858,9.5314950433634693E-002
897,9.5314950433634971E-002
940,2.9560505108163642E-004
2,2, 1, 2, 0, 6, 0.00,60.00,Monday
165,3.9771403453561567E-002
166,3.9771403453561720E-002
265,0.24012446197036974
266,0.24012446197037068
660,11.698024992318203
709,0.0000000000000000
758,11.698620784856773
759,0.0000000000000000
858,0.64337591542703432
897,0.64337591542703609
940,2.9560505108163642E-004
2,2, 1, 2, 0, 7, 0.00,60.00,Monday
165,4.2830741972793691E-002
166,4.2830741972793858E-002
265,0.30155164991627831
266,0.30155164991627953
660,11.313839515671834
709,0.0000000000000000
758,11.314452305073090
759,0.0000000000000000
858,2.2399013351904147
897,2.2399013351904213
940,2.9560505108163642E-004
2,2, 1, 2, 0, 8, 0.00,60.00,Monday
165,3.9771403453561567E-002
166,3.9771403453561720E-002
265,0.36297883786218682
266,0.36297883786218832
660,10.904956170631642
709,0.0000000000000000
758,10.906322006900334
759,0.0000000000000000
858,2.3826300698801335
897,2.3826300698801401
940,2.9560505108163642E-004
2,2, 1, 2, 0, 9, 0.00,60.00,Monday
165,1.8356032196810319E-002
166,1.8356032196810392E-002
265,0.36856312767545130
266,0.36856312767545274
660,10.773346482034913
709,0.0000000000000000
758,10.770819100372551
759,0.0000000000000000
858,2.2875588104072331
897,2.2875588104072397
940,2.9560505108163642E-004
2,2, 1, 2, 0,10, 0.00,60.00,Monday
165,1.2237354617637280E-002
166,1.2237354617637329E-002
265,0.37414741748871572
266,0.37414741748871710
660,10.248008127800423
709,0.0000000000000000
758,10.214525833939732
759,0.0000000000000000
858,2.0016139591063289
897,2.0016139591063342
940,2.9560505108163642E-004
2,2, 1, 2, 0,11, 0.00,60.00,Monday
165,1.2237354617637280E-002
166,1.2237354617637329E-002
265,0.38531599711524450
266,0.38531599711524600
660,8.8834103739325858
709,0.0000000000000000
758,8.8335117808589381
759,0.0000000000000000
858,1.8109840582390593
897,1.8109840582390644
940,2.9560505108163642E-004
2,2, 1, 2, 0,12, 0.00,60.00,Monday
165,1.2237354617637280E-002
166,1.2237354617637329E-002
265,0.39090028692850892
266,0.39090028692851042
660,7.5946534532230228
709,0.0000000000000000
758,7.5538305455707579
759,0.0000000000000000
858,1.4535529941129290
897,1.4535529941129333
940,2.9560505108163642E-004
2,2, 1, 2, 0,13, 0.00,60.00,Monday
165,1.2237354617637280E-002
166,1.2237354617637329E-002
265,0.38531599711524450
266,0.38531599711524600
660,8.1874438106319278
709,0.0000000000000000
758,8.1731650165103371
759,0.0000000000000000
858,1.2629230932456594
897,1.2629230932456634
940,2.9560505108163642E-004
2,2, 1, 2, 0,14, 0.00,60.00,Monday
165,1.2237354617637280E-002
166,1.2237354617637329E-002
265,0.36856312767545130
266,0.36856312767545274
660,8.5694138733466705
709,0.0000000000000000
758,8.5664293752151917
759,0.0000000000000000
858,1.1199506675952073
897,1.1199506675952107
940,2.9560505108163642E-004
2,2, 1, 2, 0,15, 0.00,60.00,Monday
165,1.2237354617637280E-002
166,1.2237354617637329E-002
265,0.36297883786218682
266,0.36297883786218832
660,8.6915096758139487
709,0.0000000000000000
758,8.7170550467065393
759,0.0000000000000000
858,0.97697824194475558
897,0.97697824194475835
940,2.9560505108163642E-004
2,2, 1, 2, 0,16, 0.00,60.00,Monday
165,2.1415371256751248E-002
166,2.1415371256751331E-002
265,0.37973170730198008
266,0.37973170730198164
660,9.1199669584513980
709,0.0000000000000000
758,9.1709665360326280
759,0.0000000000000000
858,1.1199506675952073
897,1.1199506675952107
940,2.9560505108163642E-004
2,2, 1, 2, 0,17, 0.00,60.00,Monday
165,4.2830741972793691E-002
166,4.2830741972793858E-002
265,0.44674318506115296
266,0.44674318506115485
660,9.0699341179056656
709,0.0000000000000000
758,9.0959458471003973
759,0.0000000000000000
858,1.3105805684624774
897,1.3105805684624812
940,2.9560505108163642E-004
2,2, 1, 2, 0,18, 0.00,60.00,Monday
165,6.1186774169604011E-002
166,6.1186774169604247E-002
265,0.55842898132644136
266,0.55842898132644347
660,8.3342178448602304
709,0.0000000000000000
758,8.3431971605275592
759,0.0000000000000000
858,1.7394978454138330
897,1.7394978454138386
940,2.9560505108163642E-004
2,2, 1, 2, 0,19, 0.00,60.00,Monday
165,8.2602145426355258E-002
166,8.2602145426355564E-002
265,0.55842898132644136
266,0.55842898132644347
660,8.1132258615782646
709,0.0000000000000000
758,8.1177734945550970
759,0.0000000000000000
858,2.0492714343231464
897,2.0492714343231522
940,2.9560505108163642E-004
2,2, 1, 2, 0,20, 0.00,60.00,Monday
165,9.7898839103933474E-002
166,9.7898839103933849E-002
265,0.51933895263359042
266,0.51933895263359242
660,8.5449397294250620
709,0.0000000000000000
758,8.5477165610558341
759,0.0000000000000000
858,1.9539564838895112
897,1.9539564838895167
940,2.9560505108163642E-004
2,2, 1, 2, 0,21, 0.00,60.00,Monday
165,9.7898839103933474E-002
166,9.7898839103933849E-002
265,0.49700179338053280
266,0.49700179338053474
660,9.2408755694197389
709,0.0000000000000000
758,9.2426876657148114
759,0.0000000000000000
858,1.7871553206306505
897,1.7871553206306556
940,2.9560505108163642E-004
2,2, 1, 2, 0,22, 0.00,60.00,Monday
165,6.7305451748777070E-002
166,6.7305451748777320E-002
265,0.47466463412747506
266,0.47466463412747695
660,9.8934811233482360
709,0.0000000000000000
758,9.8937660683035542
759,0.0000000000000000
858,1.4535529941129290
897,1.4535529941129333
940,2.9560505108163642E-004
2,2, 1, 2, 0,23, 0.00,60.00,Monday
165,3.6712064393620639E-002
166,3.6712064393620784E-002
265,0.39648457674177329
266,0.39648457674177484
660,10.375312463631058
709,0.0000000000000000
758,10.374972731055150
759,0.0000000000000000
858,1.2629230932456594
897,1.2629230932456634
940,2.9560505108163642E-004
2,2, 1, 2, 0,24, 0.00,60.00,Monday
165,1.5296693677578205E-002
166,1.5296693677578264E-002
265,0.32388880916933593
266,0.32388880916933721
660,10.545590936857096
709,0.0000000000000000
758,10.545312125972472
759,0.0000000000000000
858,0.69103339064385150
897,0.69103339064385350
940,2.9560505108163642E-004
2,3, 1, 3, 0, 1, 0.00,60.00,Tuesday
165,6.1186775791730432E-003
166,6.1186775791730657E-003
265,0.25129304159689864
266,0.25129304159689958
660,10.693846789403706
709,0.0000000000000000
758,10.694159285135813
759,0.0000000000000000
858,0.19077704734087497
897,0.19077704734087547
940,2.9560505108163642E-004
2,3, 1, 3, 0, 2, 0.00,60.00,Tuesday
165,6.1186775791730432E-003
166,6.1186775791730657E-003
265,0.22895588234384093
266,0.22895588234384182
660,10.132061961560531
709,0.0000000000000000
758,10.134736966676936
759,0.0000000000000000
858,9.5388523670437486E-002
897,9.5388523670437736E-002
940,2.9560505108163642E-004
2,3, 1, 3, 0, 3, 0.00,60.00,Tuesday
165,6.1186775791730432E-003
166,6.1186775791730657E-003
265,0.21778730271731209
266,0.21778730271731297
660,9.8728875492698869
709,0.0000000000000000
758,9.8754975420168947
759,0.0000000000000000
858,2.3847130917609372E-002
897,2.3847130917609434E-002
940,2.9560505108163642E-004
2,3, 1, 3, 0, 4, 0.00,60.00,Tuesday
165,6.1186775791730432E-003
166,6.1186775791730657E-003
265,0.21220301290404767
266,0.21220301290404853
660,10.066804547240505
709,0.0000000000000000
758,10.068003238726785
759,0.0000000000000000
858,2.3847130917609372E-002
897,2.3847130917609434E-002
940,2.9560505108163642E-004
2,3, 1, 3, 0, 5, 0.00,60.00,Tuesday
165,1.8356032196810319E-002
166,1.8356032196810392E-002
265,0.21220301290404767
266,0.21220301290404853
660,10.255415500339288
709,0.0000000000000000
758,10.254115672301474
759,0.0000000000000000
858,9.5388523670437486E-002
897,9.5388523670437736E-002
940,2.9560505108163642E-004
2,3, 1, 3, 0, 6, 0.00,60.00,Tuesday
165,3.9771403453561567E-002
166,3.9771403453561720E-002
265,0.24012446197036974
266,0.24012446197037068
660,10.234796413125439
709,0.0000000000000000
758,10.233174160461811
759,0.0000000000000000
858,0.64387253477545314
897,0.64387253477545503
940,2.9560505108163642E-004
2,3, 1, 3, 0, 7, 0.00,60.00,Tuesday
165,4.2830741972793691E-002
166,4.2830741972793858E-002
265,0.30155164991627831
266,0.30155164991627953
660,9.8400797792000176
709,0.0000000000000000
758,9.8397563393785923
759,0.0000000000000000
858,2.2416303062552805
897,2.2416303062552871
940,2.9560505108163642E-004
2,3, 1, 3, 0, 8, 0.00,60.00,Tuesday
165,3.9771403453561567E-002
166,3.9771403453561720E-002
265,0.36297883786218682
266,0.36297883786218832
660,9.9355627237561066
709,0.0000000000000000
758,9.9358721941796482
759,0.0000000000000000
858,2.3844692126961053
897,2.3844692126961116
940,2.9560505108163642E-004
2,3, 1, 3, 0, 9, 0.00,60.00,Tuesday
165,1.8356032196810319E-002
166,1.8356032196810392E-002
265,0.36856312767545130
266,0.36856312767545274
660,9.9973094874868504
709,0.0000000000000000
758,9.9385284368914029
759,0.0000000000000000
858,2.2893245680904992
897,2.2893245680905059
940,2.9560505108163642E-004
2,3, 1, 3, 0,10, 0.00,60.00,Tuesday
165,1.2237354617637280E-002
166,1.2237354617637329E-002
265,0.37414741748871572
266,0.37414741748871710
660,9.1096033826240319
709,0.0000000000000000
758,8.9292909977252641
759,0.0000000000000000
858,2.0031589970791868
897,2.0031589970791930
940,2.9560505108163642E-004
2,3, 1, 3, 0,11, 0.00,60.00,Tuesday
165,1.2237354617637280E-002
166,1.2237354617637329E-002
265,0.38531599711524450
266,0.38531599711524600
660,6.8841950611067828
709,0.0000000000000000
758,6.5037005025527446
759,0.0000000000000000
858,1.8123819497383120
897,1.8123819497383169
940,2.9560505108163642E-004
2,3, 1, 3, 0,12, 0.00,60.00,Tuesday
165,1.2237354617637280E-002
166,1.2237354617637329E-002
265,0.39090028692850892
266,0.39090028692851042
660,7.4294298639643728
709,0.0000000000000000
758,7.2531854311337547
759,0.0000000000000000
858,1.4546749859741714
897,1.4546749859741759
940,2.9560505108163642E-004
2,3, 1, 3, 0,13, 0.00,60.00,Tuesday
165,1.2237354617637280E-002
166,1.2237354617637329E-002
265,0.38531599711524450
266,0.38531599711524600
660,6.9691863735011799
709,0.0000000000000000
758,6.8816985164963835
759,0.0000000000000000
858,1.2638979386332967
897,1.2638979386333005
940,2.9560505108163642E-004
2,3, 1, 3, 0,14, 0.00,60.00,Tuesday
165,1.2237354617637280E-002
166,1.2237354617637329E-002
265,0.36856312767545130
266,0.36856312767545274
660,6.6677147920146860
709,0.0000000000000000
758,6.6770898265174203
759,0.0000000000000000
858,1.1208151531276402
897,1.1208151531276436
940,2.9560505108163642E-004
2,3, 1, 3, 0,15, 0.00,60.00,Tuesday
165,1.2237354617637280E-002
166,1.2237354617637329E-002
265,0.36297883786218682
266,0.36297883786218832
660,7.9251605029949621
709,0.0000000000000000
758,7.9292448780333347
759,0.0000000000000000
858,0.97773236762198434
897,0.97773236762198701
940,2.9560505108163642E-004
2,3, 1, 3, 0,16, 0.00,60.00,Tuesday
165,2.1415371256751248E-002
166,2.1415371256751331E-002
265,0.37973170730198008
266,0.37973170730198164
660,8.9335681758883272
709,0.0000000000000000
758,8.9453967119048876
759,0.0000000000000000
858,1.1208151531276402
897,1.1208151531276436
940,2.9560505108163642E-004
2,3, 1, 3, 0,17, 0.00,60.00,Tuesday
165,4.2830741972793691E-002
166,4.2830741972793858E-002
265,0.44674318506115296
266,0.44674318506115485
660,9.6134598917022114
709,0.0000000000000000
758,9.6180798001134082
759,0.0000000000000000
858,1.3115922004685154
897,1.3115922004685194
940,2.9560505108163642E-004
2,3, 1, 3, 0,18, 0.00,60.00,Tuesday
165,6.1186774169604011E-002
166,6.1186774169604247E-002
265,0.55842898132644136
266,0.55842898132644347
660,9.5971699298621651
709,0.0000000000000000
758,9.5968279851018234
759,0.0000000000000000
858,1.7408405569854839
897,1.7408405569854890
940,2.9560505108163642E-004
2,3, 1, 3, 0,19, 0.00,60.00,Tuesday
165,8.2602145426355258E-002
166,8.2602145426355564E-002
265,0.55842898132644136
266,0.55842898132644347
660,9.6001510540078225
709,0.0000000000000000
758,9.5984323748256308
759,0.0000000000000000
858,2.0508532589144055
897,2.0508532589144122
940,2.9560505108163642E-004
2,3, 1, 3, 0,20, 0.00,60.00,Tuesday
165,9.7898839103933474E-002
166,9.7898839103933849E-002
265,0.51933895263359042
266,0.51933895263359242
660,9.6701698631920365
709,0.0000000000000000
758,9.6673761621970229
759,0.0000000000000000
858,1.9554647352439687
897,1.9554647352439740
940,2.9560505108163642E-004
2,3, 1, 3, 0,21, 0.00,60.00,Tuesday
165,9.7898839103933474E-002
166,9.7898839103933849E-002
265,0.49700179338053280
266,0.49700179338053474
660,9.6730051966711219
709,0.0000000000000000
758,9.6680313106259561
759,0.0000000000000000
858,1.7885348188207026
897,1.7885348188207080
940,2.9560505108163642E-004
2,3, 1, 3, 0,22, 0.00,60.00,Tuesday
165,6.7305451748777070E-002
166,6.7305451748777320E-002
265,0.47466463412747506
266,0.47466463412747695
660,9.7937733293719340
709,0.0000000000000000
758,9.7880197435874230
759,0.0000000000000000
858,1.4546749859741714
897,1.4546749859741759
940,2.9560505108163642E-004
2,3, 1, 3, 0,23, 0.00,60.00,Tuesday
165,3.6712064393620639E-002
166,3.6712064393620784E-002
265,0.39648457674177329
266,0.39648457674177484
660,10.067483651507041
709,0.0000000000000000
758,10.061971024204365
759,0.0000000000000000
858,1.2638979386332967
897,1.2638979386333005
940,2.9560505108163642E-004
2,3, 1, 3, 0,24, 0.00,60.00,Tuesday
165,1.5296693677578205E-002
166,1.5296693677578264E-002
265,0.32388880916933593
266,0.32388880916933721
660,10.595666981537954
709,0.0000000000000000
758,10.590707683014967
759,0.0000000000000000
858,0.69156679661067177
897,0.69156679661067377
940,2.9560505108163642E-004
2,4, 1, 4, 0, 1, 0.00,60.00,Wednesday
165,6.1186775791730432E-003
166,6.1186775791730657E-003
265,0.25129304159689864
266,0.25129304159689958
660,11.298779756975279
709,0.0000000000000000
758,11.294885878437684
759,0.0000000000000000
858,0.19092101328020392
897,0.19092101328020450
940,2.9560505108163642E-004
2,4, 1, 4, 0, 2, 0.00,60.00,Wednesday
165,6.1186775791730432E-003
166,6.1186775791730657E-003
265,0.22895588234384093
266,0.22895588234384182
660,11.608961006055061
709,0.0000000000000000
758,11.606488054274056
759,0.0000000000000000
858,9.5460506640101958E-002
897,9.5460506640102250E-002
940,2.9560505108163642E-004
2,4, 1, 4, 0, 3, 0.00,60.00,Wednesday
165,6.1186775791730432E-003
166,6.1186775791730657E-003
265,0.21778730271731209
266,0.21778730271731297
660,11.699295114457403
709,0.0000000000000000
758,11.696929509330278
759,0.0000000000000000
858,2.3865126660025490E-002
897,2.3865126660025562E-002
940,2.9560505108163642E-004
2,4, 1, 4, 0, 4, 0.00,60.00,Wednesday
165,6.1186775791730432E-003
166,6.1186775791730657E-003
265,0.21220301290404767
266,0.21220301290404853
660,11.961072012217876
709,0.0000000000000000
758,11.958056754153333
759,0.0000000000000000
858,2.3865126660025490E-002
897,2.3865126660025562E-002
940,2.9560505108163642E-004
2,4, 1, 4, 0, 5, 0.00,60.00,Wednesday
165,1.8356032196810319E-002
166,1.8356032196810392E-002
265,0.21220301290404767
266,0.21220301290404853
660,12.181206973426169
709,0.0000000000000000
758,12.177804138436436
759,0.0000000000000000
858,9.5460506640101958E-002
897,9.5460506640102250E-002
940,2.9560505108163642E-004
2,4, 1, 4, 0, 6, 0.00,60.00,Wednesday
165,3.9771403453561567E-002
166,3.9771403453561720E-002
265,0.24012446197036974
266,0.24012446197037068
660,12.351511790090047
709,0.0000000000000000
758,12.348064054969234
759,0.0000000000000000
858,0.64435841982068842
897,0.64435841982069020
940,2.9560505108163642E-004
2,4, 1, 4, 0, 7, 0.00,60.00,Wednesday
165,4.2830741972793691E-002
166,4.2830741972793858E-002
265,0.30155164991627831
266,0.30155164991627953
660,11.732981583899990
709,0.0000000000000000
758,11.729057227236268
759,0.0000000000000000
858,2.2433219060423961
897,2.2433219060424023
940,2.9560505108163642E-004
2,4, 1, 4, 0, 8, 0.00,60.00,Wednesday
165,3.9771403453561567E-002
166,3.9771403453561720E-002
265,0.36297883786218682
266,0.36297883786218832
660,11.436019659441531
709,0.0000000000000000
758,11.430525083271883
759,0.0000000000000000
858,2.3862686028994422
897,2.3862686028994498
940,2.9560505108163642E-004
2,4, 1, 4, 0, 9, 0.00,60.00,Wednesday
165,1.8356032196810319E-002
166,1.8356032196810392E-002
265,0.36856312767545130
266,0.36856312767545274
660,11.627921461287883
709,0.0000000000000000
758,11.621227921440978
759,0.0000000000000000
858,2.2910521593624473
897,2.2910521593624540
940,2.9560505108163642E-004
2,4, 1, 4, 0,10, 0.00,60.00,Wednesday
165,1.2237354617637280E-002
166,1.2237354617637329E-002
265,0.37414741748871572
266,0.37414741748871710
660,11.346289875742158
709,0.0000000000000000
758,11.337008313490323
759,0.0000000000000000
858,2.0046706394421414
897,2.0046706394421472
940,2.9560505108163642E-004
2,4, 1, 4, 0,11, 0.00,60.00,Wednesday
165,1.2237354617637280E-002
166,1.2237354617637329E-002
265,0.38531599711524450
266,0.38531599711524600
660,10.073213491278160
709,0.0000000000000000
758,10.036319964944967
759,0.0000000000000000
858,1.8137496261619377
897,1.8137496261619424
940,2.9560505108163642E-004
2,4, 1, 4, 0,12, 0.00,60.00,Wednesday
165,1.2237354617637280E-002
166,1.2237354617637329E-002
265,0.39090028692850892
266,0.39090028692851042
660,9.1295382416649584
709,0.0000000000000000
758,9.1003494370684201
759,0.0000000000000000
858,1.4557727262615550
897,1.4557727262615592
940,2.9560505108163642E-004
2,4, 1, 4, 0,13, 0.00,60.00,Wednesday
165,1.2237354617637280E-002
166,1.2237354617637329E-002
265,0.38531599711524450
266,0.38531599711524600
660,8.3110461031407628
709,0.0000000000000000
758,8.3107958605424876
759,0.0000000000000000
858,1.2648517129813512
897,1.2648517129813550
940,2.9560505108163642E-004
2,4, 1, 4, 0,14, 0.00,60.00,Wednesday
165,1.2237354617637280E-002
166,1.2237354617637329E-002
265,0.36856312767545130
266,0.36856312767545274
660,8.0796944867762903
709,0.0000000000000000
758,8.1256832275660393
759,0.0000000000000000
858,1.1216609530211981
897,1.1216609530212012
940,2.9560505108163642E-004
2,4, 1, 4, 0,15, 0.00,60.00,Wednesday
165,1.2237354617637280E-002
166,1.2237354617637329E-002
265,0.36297883786218682
266,0.36297883786218832
660,8.0877718305344803
709,0.0000000000000000
758,8.2266797556464191
759,0.0000000000000000
858,0.97847019306104521
897,0.97847019306104810
940,2.9560505108163642E-004
2,4, 1, 4, 0,16, 0.00,60.00,Wednesday
165,2.1415371256751248E-002
166,2.1415371256751331E-002
265,0.37973170730198008
266,0.37973170730198164
660,8.7468698147288979
709,0.0000000000000000
758,8.8721774411964240
759,0.0000000000000000
858,1.1216609530211981
897,1.1216609530212012
940,2.9560505108163642E-004