Program Version,EnergyPlus, Version 22.1.0-ed759b17ee, YMD=2022.11.29 10:12
1,5,Environment Title[],Latitude[deg],Longitude[deg],Time Zone[],Elevation[m]
2,8,Day of Simulation[],Month[],Day of Month[],DST Indicator[1=yes 0=no],Hour[],StartMinute[],EndMinute[],DayType
3,5,Cumulative Day of Simulation[],Month[],Day of Month[],DST Indicator[1=yes 0=no],DayType  ! When Daily Report Variables Requested
4,2,Cumulative Days of Simulation[],Month[]  ! When Monthly Report Variables Requested
5,1,Cumulative Days of Simulation[] ! When Run Period Report Variables Requested
6,1,Calendar Year of Simulation[] ! When Annual Report Variables Requested
165,1,2_RESIDENTIAL_232D78C4,Zone Lights Electricity Energy [J] !Hourly
166,1,3_OFFICE_335E157A,Zone Lights Electricity Energy [J] !Hourly
265,1,2_RESIDENTIAL_232D78C4,Zone Electric Equipment Electricity Energy [J] !Hourly
266,1,3_OFFICE_335E157A,Zone Electric Equipment Electricity Energy [J] !Hourly
659,1,2_RESIDENTIAL_232D78C4 IDEAL LOADS AIR SYSTEM,Zone Ideal Loads Supply Air Total Heating Energy [J] !Hourly
708,1,2_RESIDENTIAL_232D78C4 IDEAL LOADS AIR SYSTEM,Zone Ideal Loads Supply Air Total Cooling Energy [J] !Hourly
757,1,3_OFFICE_335E157A IDEAL LOADS AIR SYSTEM,Zone Ideal Loads Supply Air Total Heating Energy [J] !Hourly
758,1,3_OFFICE_335E157A IDEAL LOADS AIR SYSTEM,Zone Ideal Loads Supply Air Total Cooling Energy [J] !Hourly
857,1,2019::MIDRISEAPARTMENT::APARTMENT_SHW..2_RESIDENTIAL_232D78C4,Water Use Equipment Heating Energy [J] !Hourly
936,1,SHW PUMP1,Pump Electricity Energy [J] !Hourly
End of Data Dictionary
1,RUN PERIOD 1,  47.47,-122.32,  -8.00, 122.00
2,1, 1, 1, 0, 1, 0.00,60.00,Sunday
165,19579.752589551532
166,87955.22829239976
265,804137.0898003981
266,638829.3932182849
659,10983656.123127619
708,0.0
757,2992310.7903514164
758,0.0
857,178494.83972917174
936,472.9677033564515
2,1, 1, 1, 0, 2, 0.00,60.00,Sunday
165,19579.752589551532
166,87955.22829239976
265,732658.237373696
266,638829.3932182849
659,11339487.718617562
708,0.0
757,3181276.493598874
758,0.0
857,89247.41986458589
936,472.9677033564515
2,1, 1, 1, 0, 3, 0.00,60.00,Sunday
165,19579.752589551532
166,87955.22829239976
265,696918.8111603451
266,638829.3932182849
659,11398781.933228545
708,0.0
757,3201558.6643490144
758,0.0
857,22311.85496614647
936,472.9677033564515
2,1, 1, 1, 0, 4, 0.00,60.00,Sunday
165,19579.752589551532
166,87955.22829239976
265,679049.0980536696
266,638829.3932182849
659,11232049.118300939
708,0.0
757,3089233.942178141
758,0.0
857,22311.85496614647
936,472.9677033564515
2,1, 1, 1, 0, 5, 0.00,60.00,Sunday
165,58739.25603838779
166,87955.22829239976
265,679049.0980536696
266,638829.3932182849
659,10882279.380895622
708,0.0
757,2883747.3754579416
758,0.0
857,89247.41986458589
936,472.9677033564515
2,1, 1, 1, 0, 6, 0.00,60.00,Sunday
165,127268.38923668476
166,87955.22829239976
265,768397.6635870471
266,638829.3932182849
659,10030768.868093003
708,0.0
757,2449353.5047482573
758,0.0
857,602420.0840859546
936,472.9677033564515
2,1, 1, 1, 0, 7, 0.00,60.00,Sunday
165,137058.26466632713
166,75846.04501038058
265,964964.5077604777
266,797603.6411741388
659,9567639.162649553
708,0.0
757,2217480.947894723
758,0.0
857,2097314.366817768
936,472.9677033564515
2,1, 1, 1, 0, 8, 0.00,60.00,Sunday
165,127268.38923668476
166,75846.04501038058
265,1161531.3519339084
266,797603.6411741388
659,9685818.615030956
708,0.0
757,2365248.538361922
758,0.0
857,2230957.3184601087
936,472.9677033564515
2,1, 1, 1, 0, 9, 0.00,60.00,Sunday
165,43395.857051354316
166,60837.33897537174
265,1179401.065040584
266,797603.6411741388
659,9435680.932916997
708,0.0
757,2058317.0286970146
758,0.0
857,2141938.076750061
936,472.9677033564515
2,1, 1, 1, 0,10, 0.00,60.00,Sunday
165,12103.41764882959
166,29804.078865293435
265,1197270.7781472595
266,797603.6411741388
659,8752808.50118357
708,0.0
757,1597991.2771744505
758,0.0
857,1874195.8171563034
936,472.9677033564515
2,1, 1, 1, 0,11, 0.00,60.00,Sunday
165,11747.851034650881
166,22753.813503114172
265,1233010.2043606106
266,797603.6411741388
659,7876135.090726342
708,0.0
757,1032366.410747952
758,0.0
857,1695700.9774271317
936,472.9677033564515
2,1, 1, 1, 0,12, 0.00,60.00,Sunday
165,11747.851034650881
166,25470.23798268943
265,1250879.9174672859
266,797603.6411741388
659,7544527.678643093
708,0.0
757,725039.3786320076
758,0.0
857,1361023.1529349347
936,472.9677033564515
2,1, 1, 1, 0,13, 0.00,60.00,Sunday
165,11747.851034650881
166,22753.813503114172
265,1233010.2043606106
266,797603.6411741388
659,8449593.75802281
708,0.0
757,1239915.5707895765
758,0.0
857,1182528.313205763
936,472.9677033564515
2,1, 1, 1, 0,14, 0.00,60.00,Sunday
165,11747.851034650881
166,22753.813503114172
265,1179401.065040584
266,797603.6411741388
659,8870602.338082263
708,0.0
757,1499118.7154771052
758,0.0
857,1048657.183408884
936,472.9677033564515
2,1, 1, 1, 0,15, 0.00,60.00,Sunday
165,11747.851034650881
166,25498.675020593575
265,1161531.3519339084
266,797603.6411741388
659,8977715.912525183
708,0.0
757,1523832.7299842294
758,0.0
857,914786.0536120052
936,472.9677033564515
2,1, 1, 1, 0,16, 0.00,60.00,Sunday
165,33710.75773041787
166,48773.10723684899
265,1215140.491253935
266,797603.6411741388
659,9509743.766531063
708,0.0
757,1887048.0243505817
758,0.0
857,1048657.183408884
936,472.9677033564515
2,1, 1, 1, 0,17, 0.00,60.00,Sunday
165,130837.78112988299
166,73347.19868335406
265,1429577.0485340413
266,797603.6411741388
659,9833034.979650164
708,0.0
757,2229715.988690343
758,0.0
857,1227152.0231380558
936,472.9677033564515
2,1, 1, 1, 0,18, 0.00,60.00,Sunday
165,195797.5207047149
166,75846.04501038058
265,1786971.3106675516
266,797603.6411741388
659,9572121.623259759
708,0.0
757,2357639.294342047
758,0.0
857,1628765.4125286925
936,472.9677033564515
2,1, 1, 1, 0,19, 0.00,60.00,Sunday
165,264326.6539030119
166,87955.22829239976
265,1786971.3106675516
266,638829.3932182849
659,9386377.846286565
708,0.0
757,2592002.72843827
758,0.0
857,1918819.527088597
936,472.9677033564515
2,1, 1, 1, 0,20, 0.00,60.00,Sunday
165,313276.0345117573
166,87955.22829239976
265,1661883.3189208226
266,638829.3932182849
659,9513029.413307432
708,0.0
757,2663297.6647556433
758,0.0
857,1829572.1072240104
936,472.9677033564515
2,1, 1, 1, 0,21, 0.00,60.00,Sunday
165,313276.0345117573
166,87955.22829239976
265,1590404.4664941207
266,638829.3932182849
659,9837133.179918632
708,0.0
757,2842210.759215405
758,0.0
857,1673389.1224609858
936,472.9677033564515
2,1, 1, 1, 0,22, 0.00,60.00,Sunday
165,215377.27329426646
166,87955.22829239976
265,1518925.6140674187
266,638829.3932182849
659,9948914.935826318
708,0.0
757,2867712.969064682
758,0.0
857,1361023.1529349347
936,472.9677033564515
2,1, 1, 1, 0,23, 0.00,60.00,Sunday
165,117478.51207677559
166,87955.22829239976
265,1268749.6305739614
266,638829.3932182849
659,10105591.991686974
708,0.0
757,2797646.9805523665
758,0.0
857,1182528.313205763
936,472.9677033564515
2,1, 1, 1, 0,24, 0.00,60.00,Sunday
165,48949.38060874543
166,87955.22829239976
265,1036443.3601871796
266,638829.3932182849
659,10394504.923188142
708,0.0
757,2787478.720688017
758,0.0
857,647043.7940182476
936,472.9677033564515
2,2, 1, 2, 0, 1, 0.00,60.00,Monday
165,19579.752589551532
166,87955.22829239976
265,804137.0898003981
266,851772.5242910467
659,10455195.830385134
708,0.0
757,2506446.9859470613
758,0.0
857,178635.6604560088
936,472.9677033564515
2,2, 1, 2, 0, 2, 0.00,60.00,Monday
165,19579.752589551532
166,87955.22829239976
265,732658.237373696
266,851772.5242910467
659,10587633.11667038
708,0.0
757,2515810.3480997807
758,0.0
857,89317.8302280044
936,472.9677033564515
2,2, 1, 2, 0, 3, 0.00,60.00,Monday
165,19579.752589551532
166,87955.22829239976
265,696918.8111603451
266,851772.5242910467
659,10778761.295068063
708,0.0
757,2605235.545932944
758,0.0
857,22329.4575570011
936,472.9677033564515
2,2, 1, 2, 0, 4, 0.00,60.00,Monday
165,19579.752589551532
166,87955.22829239976
265,679049.0980536696
266,851772.5242910467
659,10603318.980001735
708,0.0
757,2481059.8447344135
758,0.0
857,22329.4575570011
936,472.9677033564515
2,2, 1, 2, 0, 5, 0.00,60.00,Monday
165,58739.25603838779
166,87955.22829239976
265,679049.0980536696
266,851772.5242910467
659,10611425.335133526
708,0.0
757,2503052.1466008145
758,0.0
857,89317.8302280044
936,472.9677033564515
2,2, 1, 2, 0, 6, 0.00,60.00,Monday
165,127268.38923668476
166,175910.4565847995
265,768397.6635870471
266,851772.5242910467
659,10561203.736637026
708,0.0
757,6003812.471008316
758,0.0
857,602895.3540390298
936,472.96770335645147
2,2, 1, 2, 0, 7, 0.00,60.00,Monday
165,137058.26466632713
166,151692.09002076116
265,964964.5077604777
266,1055420.648346852
659,10057063.011069018
708,0.0
757,6857121.591594481
758,0.0
857,2098969.010358103
936,472.96770335645147
2,2, 1, 2, 0, 8, 0.00,60.00,Monday
165,127268.38923668476
166,455076.27006228344
265,1161531.3519339084
266,1055420.648346852
659,9510551.772404052
708,0.0
757,6510533.790406281
758,0.0
857,2232717.397527967
936,472.9677033564515
2,2, 1, 2, 0, 9, 0.00,60.00,Monday
165,40642.56854838381
166,1048021.2290468719
265,1179401.065040584
266,2374696.458780417
659,9301298.606269227
708,0.0
757,3624243.309048578
758,0.0
857,2143627.9254721054
936,472.9677033564515
2,2, 1, 2, 0,10, 0.00,60.00,Monday
165,11747.851034650881
166,487357.51168156863
265,1197270.7781472595
266,2374696.458780417
659,8821158.38446986
708,0.0
757,3123783.313715632
758,0.0
857,1875674.4347880925
936,472.9677033564515
2,2, 1, 2, 0,11, 0.00,60.00,Monday
165,11747.851034650881
166,409568.6430560552
265,1233010.2043606106
266,2374696.458780417
659,7677215.247312444
708,0.0
757,2415087.69030515
758,0.0
857,1697038.7743320833
936,472.9677033564515
2,2, 1, 2, 0,12, 0.00,60.00,Monday
165,11747.851034650881
166,409568.6430560552
265,1250879.9174672859
266,2374696.458780417
659,6621071.864049694
708,0.0
757,1738572.1196369543
758,0.0
857,1362096.9109770672
936,472.9677033564515
2,2, 1, 2, 0,13, 0.00,60.00,Monday
165,11747.851034650881
166,409568.6430560552
265,1233010.2043606106
266,2110841.296693704
659,7195816.222254516
708,0.0
757,2510710.0415614946
758,0.0
857,1183461.250521059
936,472.9677033564515
2,2, 1, 2, 0,14, 0.00,60.00,Monday
165,11747.851034650881
166,409568.6430560552
265,1179401.065040584
266,2374696.458780417
659,7476570.18167438
708,0.0
757,2009969.079641016
758,0.0
857,1049484.5051790515
936,472.9677033564515
2,2, 1, 2, 0,15, 0.00,60.00,Monday
165,11747.851034650881
166,421017.75683522795
265,1161531.3519339084
266,2374696.458780417
659,7548704.303493551
708,0.0
757,2023970.470842477
758,0.0
857,915507.759837045
936,472.9677033564515
2,2, 1, 2, 0,16, 0.00,60.00,Monday
165,27610.130938954804
166,775328.6213957667
265,1215140.491253935
266,2374696.458780417
659,7851658.049591529
708,0.0
757,2138313.384104336
758,0.0
857,1049484.5051790515
936,472.9677033564515
2,2, 1, 2, 0,17, 0.00,60.00,Monday
165,129354.25766493927
166,1311806.3810043528
265,1429577.0485340413
266,2374696.458780417
659,7677374.626581659
708,0.0
757,2005052.36107369
758,0.0
857,1228120.1656350605
936,472.9677033564515
2,2, 1, 2, 0,18, 0.00,60.00,Monday
165,195797.5207047149
166,758460.4501038059
265,1786971.3106675516
266,1319275.8104335652
659,6968960.265706314
708,0.0
757,3455469.140288463
758,0.0
857,1630050.4016610805
936,472.9677033564515
2,2, 1, 2, 0,19, 0.00,60.00,Monday
165,264326.6539030119
166,455076.27006228344
265,1786971.3106675516
266,1055420.648346852
659,6801740.268886149
708,0.0
757,4139991.6732586725
758,0.0
857,1920333.349902095
936,472.9677033564515
2,2, 1, 2, 0,20, 0.00,60.00,Monday
165,313276.0345117573
166,455076.27006228344
265,1661883.3189208226
266,1055420.648346852
659,7199728.5633074595
708,0.0
757,4378188.00099201
758,0.0
857,1831015.51967409
936,472.9677033564515
2,2, 1, 2, 0,21, 0.00,60.00,Monday
165,313276.0345117573
166,303384.1800415223
265,1590404.4664941207
266,1055420.648346852
659,7803539.126620618
708,0.0
757,4711158.923272143
758,0.0
857,1674709.3167750833
936,472.9677033564515
2,2, 1, 2, 0,22, 0.00,60.00,Monday
165,215377.27329426646
166,303384.1800415223
265,1518925.6140674187
266,1055420.648346852
659,8358033.788950569
708,0.0
757,4962595.39948955
758,0.0
857,1362096.9109770672
936,472.9677033564515
2,2, 1, 2, 0,23, 0.00,60.00,Monday
165,117478.51207677559
166,151692.09002076116
265,1268749.6305739614
266,1055420.648346852
659,8828146.404478393
708,0.0
757,0.0
758,0.0
857,1183461.250521059
936,472.9677033564515
2,2, 1, 2, 0,24, 0.00,60.00,Monday
165,48949.38060874543
166,75846.04501038058
265,1036443.3601871796
266,1055420.648346852
659,9211607.602303872
708,0.0
757,560168.8190288516
758,0.0
857,647554.2691530319
936,472.9677033564515
2,3, 1, 3, 0, 1, 0.00,60.00,Tuesday
165,19579.752589551532
166,87955.22829239976
265,804137.0898003981
266,851772.5242910467
659,9533603.612003215
708,0.0
757,1330265.9277681408
758,0.0
857,178773.54048310034
936,472.9677033564515
2,3, 1, 3, 0, 2, 0.00,60.00,Tuesday
165,19579.752589551532
166,87955.22829239976
265,732658.237373696
266,851772.5242910467
659,9130683.302112833
708,0.0
757,1163407.2852713396
758,0.0
857,89386.77024155017
936,472.9677033564515
2,3, 1, 3, 0, 3, 0.00,60.00,Tuesday
165,19579.752589551532
166,87955.22829239976
265,696918.8111603451
266,851772.5242910467
659,8956047.329398537
708,0.0
757,1076885.4135688816
758,0.0
857,22346.692560387542
936,472.9677033564515
2,3, 1, 3, 0, 4, 0.00,60.00,Tuesday
165,19579.752589551532
166,87955.22829239976
265,679049.0980536696
266,851772.5242910467
659,9130866.635619013
708,0.0
757,1195028.481295212
758,0.0
857,22346.692560387542
936,472.9677033564515
2,3, 1, 3, 0, 5, 0.00,60.00,Tuesday
165,58739.25603838779
166,87955.22829239976
265,679049.0980536696
266,851772.5242910467
659,9289310.543413565
708,0.0
757,1318142.2848188651
758,0.0
857,89386.77024155017
936,472.9677033564515
2,3, 1, 3, 0, 6, 0.00,60.00,Tuesday
165,127268.38923668476
166,175910.4565847995
265,768397.6635870471
266,851772.5242910467
659,9218402.732003938
708,0.0
757,4685940.6465218505
758,0.0
857,603360.6991304636
936,472.96770335645147
2,3, 1, 3, 0, 7, 0.00,60.00,Tuesday
165,137058.26466632713
166,151692.09002076116
265,964964.5077604777
266,1055420.648346852
659,8715539.55987442
708,0.0
757,5683147.796048502
758,0.0
857,2100589.1006764285
936,472.96770335645147
2,3, 1, 3, 0, 8, 0.00,60.00,Tuesday
165,127268.38923668476
166,455076.27006228344
265,1161531.3519339084
266,1055420.648346852
659,8610722.67228552
708,0.0
757,5601342.963588566
758,0.0
857,2234440.7216082374
936,472.9677033564515
2,3, 1, 3, 0, 9, 0.00,60.00,Tuesday
165,29036.15473439522
166,866383.1803346126
265,1179401.065040584
266,2374696.458780417
659,8512824.807542752
708,0.0
757,2942190.8374672285
758,0.0
857,2145282.485797204
936,472.9677033564515
2,3, 1, 3, 0,10, 0.00,60.00,Tuesday
165,11747.851034650881
166,417093.9930629894
265,1197270.7781472595
266,2374696.458780417
659,7546253.2698480375
708,0.0
757,2379012.944956708
758,0.0
857,1877122.1750725536
936,472.9677033564515
2,3, 1, 3, 0,11, 0.00,60.00,Tuesday
165,11747.851034650881
166,409568.6430560552
265,1233010.2043606106
266,2374696.458780417
659,5131764.686234877
708,0.0
757,1655119.1279509855
758,0.0
857,1698348.6345894528
936,472.9677033564515
2,3, 1, 3, 0,12, 0.00,60.00,Tuesday
165,11747.851034650881
166,409568.6430560552
265,1250879.9174672859
266,2374696.458780417
659,6152830.816586468
708,0.0
757,1533891.788479751
758,0.0
857,1363148.24618364
936,472.9677033564515
2,3, 1, 3, 0,13, 0.00,60.00,Tuesday
165,11747.851034650881
166,409568.6430560552
265,1233010.2043606106
266,2110841.296693704
659,5711230.540336043
708,0.0
757,1840616.1208732235
758,0.0
857,1184374.7057005398
936,472.9677033564515
2,3, 1, 3, 0,14, 0.00,60.00,Tuesday
165,11747.851034650881
166,409568.6430560552
265,1179401.065040584
266,2374696.458780417
659,5574830.695291663
708,0.0
757,1073188.8430134216
758,0.0
857,1050294.5503382143
936,472.9677033564515
2,3, 1, 3, 0,15, 0.00,60.00,Tuesday
165,12824.064587534831
166,634639.8513394604
265,1161531.3519339084
266,2374696.458780417
659,6743463.944374551
708,0.0
757,1361039.096251093
758,0.0
857,916214.3949758892
936,472.9677033564515
2,3, 1, 3, 0,16, 0.00,60.00,Tuesday
165,40273.43434231127
166,982749.794372766
265,1215140.491253935
266,2374696.458780417
659,7520671.841205633
708,0.0
757,1634068.2343653354
758,0.0
857,1050294.5503382143
936,472.9677033564515
2,3, 1, 3, 0,17, 0.00,60.00,Tuesday
165,131784.5047483145
166,1324875.0830358115
265,1429577.0485340413
266,2374696.458780417
659,8005253.747347892
708,0.0
757,1868327.5333544167
758,0.0
857,1229068.0908213148
936,472.9677033564515
2,3, 1, 3, 0,18, 0.00,60.00,Tuesday
165,195797.5207047149
166,758460.4501038059
265,1786971.3106675516
266,1319275.8104335652
659,7925915.427050816
708,0.0
757,3643529.694937148
758,0.0
857,1631308.5569082904
936,472.9677033564515
2,3, 1, 3, 0,19, 0.00,60.00,Tuesday
165,264326.6539030119
166,455076.27006228344
265,1786971.3106675516
266,1055420.648346852
659,7953720.144129265
708,0.0
757,4453126.320743951
758,0.0
857,1921815.5601933287
936,472.9677033564515
2,3, 1, 3, 0,20, 0.00,60.00,Tuesday
165,313276.0345117573
166,455076.27006228344
265,1661883.3189208226
266,1055420.648346852
659,8051079.598667925
708,0.0
757,4581447.122941604
758,0.0
857,1832428.7899517785
936,472.9677033564515
2,3, 1, 3, 0,21, 0.00,60.00,Tuesday
165,313276.0345117573
166,303384.1800415223
265,1590404.4664941207
266,1055420.648346852
659,8074927.5151028065
708,0.0
757,4660379.988785975
758,0.0
857,1676001.942029066
936,472.9677033564515
2,3, 1, 3, 0,22, 0.00,60.00,Tuesday
165,215377.27329426646
166,303384.1800415223
265,1518925.6140674187
266,1055420.648346852
659,8195892.85958291
708,0.0
757,4697340.146717906
758,0.0
857,1363148.24618364
936,472.9677033564515
2,3, 1, 3, 0,23, 0.00,60.00,Tuesday
165,117478.51207677559
166,151692.09002076116
265,1268749.6305739614
266,1055420.648346852
659,8501684.537499132
708,0.0
757,0.0
758,0.0
857,1184374.7057005395
936,472.9677033564515
2,3, 1, 3, 0,24, 0.00,60.00,Tuesday
165,48949.38060874543
166,75846.04501038058
265,1036443.3601871796
266,1055420.648346852
659,9182074.863601325
708,0.0
757,298420.60864292074
758,0.0
857,648054.0842512388
936,472.9677033564515
2,4, 1, 4, 0, 1, 0.00,60.00,Wednesday
165,19579.752589551532
166,87955.22829239976
265,804137.0898003981
266,851772.5242910467
659,9972317.97263052
708,0.0
757,1368109.587214324
758,0.0
857,178908.43897858218
936,472.9677033564515
2,4, 1, 4, 0, 2, 0.00,60.00,Wednesday
165,19579.752589551532
166,87955.22829239976
265,732658.237373696
266,851772.5242910467
659,10314971.175139956
708,0.0
757,1708963.6233067513
758,0.0
857,89454.21948929109
936,472.9677033564515
2,4, 1, 4, 0, 3, 0.00,60.00,Wednesday
165,19579.752589551532
166,87955.22829239976
265,696918.8111603451
266,851772.5242910467
659,10424326.824190848
708,0.0
757,1819746.1922355494
758,0.0
857,22363.554872322773
936,472.9677033564515
2,4, 1, 4, 0, 4, 0.00,60.00,Wednesday
165,19579.752589551532
166,87955.22829239976
265,679049.0980536696
266,851772.5242910467
659,10661795.289268801
708,0.0
757,1990732.5874503672
758,0.0
857,22363.554872322773
936,472.9677033564515
2,4, 1, 4, 0, 5, 0.00,60.00,Wednesday
165,58739.25603838779
166,87955.22829239976
265,679049.0980536696
266,851772.5242910467
659,10840608.894420944
708,0.0
757,2152273.1651843637
758,0.0
857,89454.21948929109
936,472.9677033564515
2,4, 1, 4, 0, 6, 0.00,60.00,Wednesday
165,127268.38923668476
166,175910.4565847995
265,768397.6635870471
266,851772.5242910467
659,10932872.380526615
708,0.0
757,5741086.2299774485
758,0.0
857,603815.981552715
936,472.96770335645147
2,4, 1, 4, 0, 7, 0.00,60.00,Wednesday
165,137058.26466632713
166,151692.09002076116
265,964964.5077604777
266,1055420.648346852
659,10236934.488671957
708,0.0
757,6384781.466842393
758,0.0
857,2102174.1579983407
936,472.96770335645147
2,4, 1, 4, 0, 8, 0.00,60.00,Wednesday
165,127268.38923668476
166,455076.27006228344
265,1161531.3519339084
266,1055420.648346852
659,9811583.402296871
708,0.0
757,6127056.28245884
758,0.0
857,2236126.7803548165
936,472.9677033564515
2,4, 1, 4, 0, 9, 0.00,60.00,Wednesday
165,46490.55117175948
166,1127729.7255780096
265,1179401.065040584
266,2374696.458780417
659,9879380.363011993
708,0.0
757,3400343.364389848
758,0.0
857,2146901.2677429863
936,472.9677033564515
2,4, 1, 4, 0,10, 0.00,60.00,Wednesday
165,16874.384437293895
166,723389.0406961639
265,1197270.7781472595
266,2374696.458780417
659,9618440.02562493
708,0.0
757,2955595.949856524
758,0.0
857,1878538.6092751133
936,472.9677033564515
2,4, 1, 4, 0,11, 0.00,60.00,Wednesday
165,11747.851034650881
166,409568.6430560552
265,1233010.2043606106
266,2374696.458780417
659,8558705.148355179
708,0.0
757,2398058.80204537
758,0.0
857,1699630.170296531
936,472.9677033564515
2,4, 1, 4, 0,12, 0.00,60.00,Wednesday
165,11747.851034650881
166,409568.6430560552
265,1250879.9174672859
266,2374696.458780417
659,7821005.886012106
708,0.0
757,1904591.3419463555
758,0.0
857,1364176.8472116892
936,472.9677033564515
2,4, 1, 4, 0,13, 0.00,60.00,Wednesday
165,11747.851034650881
166,409568.6430560552
265,1233010.2043606106
266,2110841.296693704
659,7046176.803629202
708,0.0
757,2210098.7938517085
758,0.0
857,1185268.408233107
936,472.9677033564515
2,4, 1, 4, 0,14, 0.00,60.00,Wednesday
165,11747.851034650881
166,409568.6430560552
265,1179401.065040584
266,2374696.458780417
659,6886494.725090283
708,0.0
757,1472315.946840089
758,0.0
857,1051087.0789991706
936,472.9677033564515
2,4, 1, 4, 0,15, 0.00,60.00,Wednesday
165,11747.851034650881
166,409568.6430560552
265,1161531.3519339084
266,2374696.458780417
659,6843537.944467894
708,0.0
757,1494348.6951015973
758,0.0
857,916905.7497652338
936,472.9677033564515
2,4, 1, 4, 0,16, 0.00,60.00,Wednesday
165,25713.553971891673
166,717270.4305803768
265,1215140.491253935
266,2374696.458780417
659,7417183.512140218
708,0.0
757,1637457.529053987
758,0.0
857,1051087.0789991706
936,472.9677033564515
2,4, 1, 4, 0,17, 0.00,60.00,Wednesday
165,128319.0538298221
166,1305273.2753395627
265,1429577.0485340413
266,2374696.458780417
659,8044933.049961574
708,0.0
757,1830283.3186904
758,0.0
857,1229995.517977753
936,472.9677033564515
2,4, 1, 4, 0,18, 0.00,60.00,Wednesday
165,195797.5207047149
166,758460.4501038059
265,1786971.3106675516
266,1319275.8104335652
659,8231255.292076816
708,0.0
757,3701980.032998071
758,0.0
857,1632539.5056795627
936,472.9677033564515
2,4, 1, 4, 0,19, 0.00,60.00,Wednesday
165,264326.6539030119
166,455076.27006228344
265,1786971.3106675516
266,1055420.648346852
659,8855820.895474156
708,0.0
757,4808693.937097345
758,0.0
857,1923265.719019759
936,472.9677033564515
2,4, 1, 4, 0,20, 0.00,60.00,Wednesday
165,313276.0345117573
166,455076.27006228344
265,1661883.3189208226
266,1055420.648346852
659,9721124.771872733
708,0.0
757,5344748.303995571
758,0.0
857,1833811.4995304677
936,472.9677033564515
2,4, 1, 4, 0,21, 0.00,60.00,Wednesday
165,313276.0345117573
166,303384.1800415223
265,1590404.4664941207
266,1055420.648346852
659,10094333.945600918
708,0.0
757,5634087.462408233
758,0.0
857,1677266.6154242088
936,472.9677033564515
2,4, 1, 4, 0,22, 0.00,60.00,Wednesday
165,215377.27329426646
166,303384.1800415223
265,1518925.6140674187
266,1055420.648346852
659,10066710.116926285
708,0.0
757,5648822.64823531
758,0.0
857,1364176.8472116892
936,472.9677033564515
2,4, 1, 4, 0,23, 0.00,60.00,Wednesday
165,117478.51207677559
166,151692.09002076116
265,1268749.6305739614
266,1055420.648346852
659,10638055.70755653
708,0.0
757,33075.66959173029
758,0.0
857,1185268.408233107
936,472.9677033564515
2,4, 1, 4, 0,24, 0.00,60.00,Wednesday
165,48949.38060874543
166,75846.04501038058
265,1036443.3601871796
266,1055420.648346852
659,11701201.177548997
708,0.0
757,2092711.5508078237
758,0.0
857,648543.0912973604
936,472.9677033564515
2,5, 1, 5, 0, 1, 0.00,60.00,Thursday
165,19579.752589551532
166,87955.22829239976
265,804137.0898003981
266,851772.5242910467
659,12935197.522067258
708,0.0
757,3270104.7321931757
758,0.0
857,179040.3159935427
936,472.9677033564515
2,5, 1, 5, 0, 2, 0.00,60.00,Thursday
165,19579.752589551532
166,87955.22829239976
265,732658.237373696
266,851772.5242910467
659,13244347.293069433
708,0.0
757,3567795.7952063847
758,0.0
857,89520.15799677135
936,472.9677033564515
2,5, 1, 5, 0, 3, 0.00,60.00,Thursday
165,19579.752589551532
166,87955.22829239976
265,696918.8111603451
266,851772.5242910467
659,13315976.699584387
708,0.0
757,3676295.4089118806
758,0.0
857,22380.039499192837
936,472.9677033564515
2,5, 1, 5, 0, 4, 0.00,60.00,Thursday
165,19579.752589551532
166,87955.22829239976
265,679049.0980536696
266,851772.5242910467
659,14309673.147223147
708,0.0
757,4343782.406330103
758,0.0
857,22380.039499192837
936,472.9677033564515
2,5, 1, 5, 0, 5, 0.00,60.00,Thursday
165,58739.25603838779
166,87955.22829239976
265,679049.0980536696
266,851772.5242910467
659,14933428.47569086
708,0.0
757,4803232.637238584
758,0.0
857,89520.15799677135
936,472.9677033564515
2,5, 1, 5, 0, 6, 0.00,60.00,Thursday
165,127268.38923668476
166,175910.4565847995
265,768397.6635870471
266,851772.5242910467
659,15163860.087905237
708,0.0
757,8664072.525529351
758,0.0
857,604261.0664782067
936,472.96770335645147
2,5, 1, 5, 0, 7, 0.00,60.00,Thursday
165,137058.26466632713
166,151692.09002076116
265,964964.5077604777
266,1055420.648346852
659,14315020.030186087
708,0.0
757,8513034.773346854
758,0.0
857,2103723.7129241265
936,472.96770335645147
2,5, 1, 5, 0, 8, 0.00,60.00,Thursday
165,127268.38923668476
166,455076.27006228344
265,1161531.3519339084
266,1055420.648346852
659,13529163.534287501
708,0.0
757,8076811.76626814
758,0.0
857,2237775.074457376
936,472.9677033564515
2,5, 1, 5, 0, 9, 0.00,60.00,Thursday
165,19203.00046912274
166,744521.8148871984
265,1179401.065040584
266,2374696.458780417
659,11290774.391927505
708,0.0
757,5219260.208178229
758,0.0
857,2148483.791922513
936,472.9677033564515
2,5, 1, 5, 0,10, 0.00,60.00,Thursday
165,11747.851034650881
166,409981.2334391052
265,1197270.7781472595
266,2374696.458780417
659,7620820.437013395
708,0.0
757,3957087.3898618724
758,0.0
857,1879923.3179321983
936,472.9677033564515
2,5, 1, 5, 0,11, 0.00,60.00,Thursday
165,11747.851034650881
166,409568.6430560552
265,1233010.2043606106
266,2374696.458780417
659,8878102.96947394
708,0.0
757,3116482.256104095
758,0.0
857,1700883.0019386557
936,472.9677033564515
2,5, 1, 5, 0,12, 0.00,60.00,Thursday
165,11747.851034650881
166,409568.6430560552
265,1250879.9174672859
266,2374696.458780417
659,9394856.458685365
708,0.0
757,2867878.146937633
758,0.0
857,1365182.4094507631
936,472.9677033564515
2,5, 1, 5, 0,13, 0.00,60.00,Thursday
165,11747.851034650881
166,409568.6430560552
265,1233010.2043606106
266,2110841.296693704
659,8746551.12024119
708,0.0
757,3333792.565112954
758,0.0
857,1186142.0934572206
936,472.9677033564515
2,5, 1, 5, 0,14, 0.00,60.00,Thursday
165,11747.851034650881
166,409568.6430560552
265,1179401.065040584
266,2374696.458780417
659,3342099.875379783
708,0.0
757,2229768.5040464667
758,0.0
857,1051861.8564620633
936,472.9677033564515
2,5, 1, 5, 0,15, 0.00,60.00,Thursday
165,11747.851034650881
166,409568.6430560552
265,1161531.3519339084
266,2374696.458780417
659,1061970.374472152
708,0.0
757,1507228.3652702705
758,0.0
857,917581.6194669063
936,472.9677033564515
2,5, 1, 5, 0,16, 0.00,60.00,Thursday
165,20558.73995948909
166,525257.2234897851
265,1215140.491253935
266,2374696.458780417
659,2998162.3079198455
708,0.0
757,1388311.2433680147
758,0.0
857,1051861.8564620633
936,472.9677033564515
2,5, 1, 5, 0,17, 0.00,60.00,Thursday
165,108876.75432252414
166,1258802.3243493566
265,1429577.0485340413
266,2374696.458780417
659,7451388.142382784
708,0.0
757,2084816.209844413
758,0.0
857,1230902.1724556063
936,472.9677033564515
2,5, 1, 5, 0,18, 0.00,60.00,Thursday
165,195797.5207047149
166,758460.4501038059
265,1786971.3106675516
266,1319275.8104335652
659,9309239.481555456
708,0.0
757,4454019.764093897
758,0.0
857,1633742.8834410773
936,472.9677033564515
2,5, 1, 5, 0,19, 0.00,60.00,Thursday
165,264326.6539030119
166,455076.27006228344
265,1786971.3106675516
266,1055420.648346852
659,10265642.497837804
708,0.0
757,5705111.911463815
758,0.0
857,1924683.3969305847
936,472.9677033564515
2,5, 1, 5, 0,20, 0.00,60.00,Thursday
165,313276.0345117573
166,455076.27006228344
265,1661883.3189208226
266,1055420.648346852
659,11009465.85714341
708,0.0
757,6158390.125946234
758,0.0
857,1835163.2389338126
936,472.9677033564515
2,5, 1, 5, 0,21, 0.00,60.00,Thursday
165,313276.0345117573
166,303384.1800415223
265,1590404.4664941207
266,1055420.648346852
659,11110592.864014907
708,0.0
757,6299330.6080927625
758,0.0
857,1678502.962439463
936,472.9677033564515
2,5, 1, 5, 0,22, 0.00,60.00,Thursday
165,215377.27329426646
166,303384.1800415223